
 *******************************************************************************
 *                                                                             *
 *  -------------------------------------                                      *
 *   Amsterdam Density Functional  (ADF)         2013.01   April 2, 2013       *
 *  -------------------------------------                                      *
 *                                               Build 201304112106            *
 *                                                                             *
 *                                                                             *
 *                            =====================                            *
 *                            |                   |                            *
 *                            |     D I R A C     |                            *
 *                            |                   |                            *
 *                            =====================                            *
 *                                                                             *
 *                                                                             *
 *   Online information and documentation:  http://www.scm.com                 *
 *   E-mail:  support@scm.com   info@scm.com                                   *
 *                                                                             *
 *   Scientific publications using ADF results must be properly referenced     *
 *   See the User Manuals (or the web site) for recommended citations          *
 *   The terms and conditions of the End User License Agreement apply to       *
 *   the use of ADF, http://www.scm.com/Sales/LicAgreement.html                *
 *                                                                             *
 ****************************  x86_64_linux_intel  *****************************
 
 Licensed to: Prof. Cacier Hadad / University of Antioquia / Medellin / COLOMBIA
 SCM User ID: u15319
  
 DIRAC 2013.01  RunTime: Jan01-2013 00:00:00  Nodes: 1  Procs: 1

 Temporary files are created in /home/scratch/adf/kid_0.AEr1lR

1
 HYDROGEN ATOM RELATIVISTIC, Point Nuc, A and c from libtc   
 N J RN H ZN XION ANUC CLIGHT
 5000    1100.00000000197.36710137  1.00000000  0.00000000    1.007825  0.1370360E+03
  PH   PHI     EPS        DEL        DELRVR
  0.30  0.30     2500.00  0.00001000  0.00001000
 IDIRC  NC1  NDEBU NPRIN  IPUN IRCOR IWCOR
   1   300     0     0     0     0     0
   XALPHA      XLATTER      RNUC
  0.70000000  0.00000000  0.00000000 Point Charge
   XN   XL   XJ      XE          XZ      XDELL
  1.0  0.0  0.5      -1.000       1.000     0.00000
 ICORP=  0  NPCL=  0  DEMP=0.00  PEPS=0.000000
 R(1)=  0.1000000E-08 D=  0.1005080E+01 RNUC=  0.0000000E+00
 converged at cycle   32  DENSITY AVERAGING    0.2400
  MAXIMUM ERROR IN R.V(R) IS   0.79874357E-05
 Q,EY,EV,EZ,ESUM,ETOT,RHO  0.100000E+01 -0.266614E+00 -0.619969E+00 -0.910779E+00 -0.203940E+00 -0.415998E+00  0.337036E-17


 DIRAC CALCULATION
1                    HYDROGEN ATOM RELATIVISTIC, Point Nuc, A and c from libtc


 EXCHANGE COEFFICIENT=  0.7000000           TAIL CORRECTION=  0.           NUCLEAR RADIUS=  0.000E+00
0                       ORBITAL    N    L    J     ELECTRONS     EIGENVALUE                DELTA OF EIGENV.

                          1S1/2  1.0  0.0  0.5     1.000       -0.2039397E+00                 0.2720093E-06


                                        NUCLEAR CHARGE=    1.000000
                            INTEGRAL OF CHARGE DENSITY=    1.000000
                           SUM OF THE ORBITAL ENERGIES=     -0.2039
                                          TOTAL ENERGY=     -0.4160
                                        KINETIC ENERGY=      0.4160
                             NUCLEAR ATTRACTION ENERGY=     -0.9108
                             ELECTRON REPULSION ENERGY=      0.2787
                                       EXCHANGE ENERGY=     -0.2000

 *******************************************************************************

                             D I R A C   E X I T
 NORMAL TERMINATION



 =================
 Timing Statistics
 =================
  
 Total Used :                     CPU=        0.07      System=        0.02     Elapsed=        0.09

 Calls  Section                     ( Mean, Percentage )
 ---------------------------------------------------------------------------------------------------
     2  ><      ................      0.00    0.01             0.00    0.03             0.00    0.02
     1  EXIT PROCEDURE .........      0.07   99.99             0.02   99.97             0.09   99.98


 Currently Open Files (EXIT00)
 ====================

 Unit    Access Format  Status   Type       Ident (file)
 -------------------------------------------------------
   3      SEQ    FORM   TRANSP  NORMAL      LOGFILE
                                          ( logfile )


 Buffered I/O statistics
 =======================
 Memory available:                     67108864
 Number of records fitting in memory:     16131
 Input : 100.0% of                            0  *4k bytes
 Output: 100.0% of                            0  *4k bytes
 Records from serial files evicted:           0
                    others evicted:           0
 Hash table lookups:          0 with          0 conflicts (100.00%)
(INPUT FILE)
Create H   file=/home/danian/Documents/programas/adf2013.01/atomicdata/ZORA/QZ4P/H
 XC
 GGA PBE
End
relativistic ZORA
Corepotentials t12.rel
End Input

 *******************************************************************************
 *                                                                             *
 *  -------------------------------------                                      *
 *   Amsterdam Density Functional  (ADF)         2013.01   April 2, 2013       *
 *  -------------------------------------                                      *
 *                                               Build 201304112215            *
 *                                                                             *
 *                                                                             *
 *                              =================                              *
 *                              |               |                              *
 *                              |     A D F     |                              *
 *                              |               |                              *
 *                              =================                              *
 *                                                                             *
 *                                                                             *
 *   Online information and documentation:  http://www.scm.com                 *
 *   E-mail:  support@scm.com   info@scm.com                                   *
 *                                                                             *
 *   Scientific publications using ADF results must be properly referenced     *
 *   See the User Manuals (or the web site) for recommended citations          *
 *   The terms and conditions of the End User License Agreement apply to       *
 *   the use of ADF, http://www.scm.com/Sales/LicAgreement.html                *
 *                                                                             *
 ********************  x86_64_linux_intel / platform_mpi  **********************
 
 Licensed to: Prof. Cacier Hadad / University of Antioquia / Medellin / COLOMBIA
 SCM User ID: u15319
  
 ADF 2013.01  RunTime: Jan01-2013 00:00:00  Nodes: 1  Procs: 1

 Temporary files are created in /home/scratch/adf/kid_0.DA8661

 Hydrogen (QZ, all electron, 5S 2P 2D)



 ===========================
 A T T A C H E D   F I L E S
 ===========================
  
 CREATE - Data File:    /home/danian/Documents/programas/adf2013.01/atomicdata/ZORA/QZ4P/H
                        Hydrogen (QZ, all electron, 5S 2P 2D)
 Core Potentials:
         file : t12.rel



 ===============================
 M O D E L   P A R A M E T E R S
 ===============================
  
 DENSITY FUNCTIONAL POTENTIAL (scf)
    LDA:                               PW92                                    == Not Default ==
    Gradient Corrections:              PBEc PBEx                               == Not Default ==

 SPIN  (restricted / unrestr.)
    Molecule:                          Restricted                               

 OTHER ASPECTS
    Relativistic Corrections:          scalar (ZORA,SAPA)                      == Not Default ==

    Nuclear Charge Density Model:      Point Charge Nuclei                                                                                                                                                                                     
    Core Treatment:                    Frozen Orbital(s)                        

    Hyperfine or Zeeman Interaction:   ---                                      



 =====================================
 S Y M M E T R Y ,   E L E C T R O N S
 =====================================
  
 Symmetry: ATOM

 Irreducible Representations, including subspecies
 -------------------------------------------------
 S
 P:x  P:y  P:z
 D:z2  D:x2-y2  D:xy  D:xz  D:yz
 F:z3  F:z  F:xyz  F:z2x  F:z2y  F:x  F:y


 Configuration of Valence Electrons
 ==================================

          Occupation Numbers
          -------------------------------------------------
 S        1
 P        0
 D        0
 F        0
          -------------------------------------------------

 Total:   1

 Net Charge: 0 (Nuclei minus Electrons)

 Preset values for MO occupations will be applied through SCF cycle no. 1000000
 Thereafter, the program will assign electrons to MOs that are spatially
 similar to the occupied MOs in a "reference" cycle ("KeepOrbitals").
 The reference cycle is always the PREVIOUS cycle: it will evolve with
 the SCF procedure.



 ================================
 (Slater-type)  F U N C T I O N S  ***  (Basis and Fit)  ***
 ================================
  

 Atom Type    1  (H)
 ==============

 Valence Basis Sets:   9
 -----------------------
   1 S    3.300000
   1 S    2.000000
   1 S    1.400000
   1 S    1.000000
   1 S    0.710000
   2 P    2.000000
   2 P    1.000000
   3 D    2.500000
   3 D    1.500000

 Charge Fitting Sets (for the computation of the Coulomb Potential):  22
 -----------------------------------------------------------------------
   1 S    6.600000
   1 S    4.620000
   1 S    3.230000
   1 S    2.260000
   1 S    1.580000
   1 S    1.100000
   1 S    0.770000
   2 S    1.000000
   2 P    5.300000
   2 P    3.870000
   2 P    2.820000
   2 P    2.060000
   2 P    1.500000
   3 D    5.800000
   3 D    4.070000
   3 D    2.850000
   3 D    2.000000
   4 F    4.500000
   4 F    3.350000
   4 F    2.500000
   5 G    5.000000
   5 G    3.000000


 BAS: List of all Elementary Cartesian Basis Functions
 =====================================================

 The numbering in the list below (to the right of the function characteristics) is referred
 to in print-outs of MO eigenvectors and Mulliken populations in the BAS representation
 (as contrasted to the SFO representation).

 Notes:
 1. The functions are characterized by a polynomial prefactor (powers of x,y,z and r) and
    an exponential decay factor alpha.
 2. Since the basis sets are specific for an atom TYPE, the individual functions occur on
    all atoms of that type.
 3. The word 'Core' in the left margin signals that it is a Core Function (CF) : not a
    degree of freedom in the valence set, but only used to ensure orthogonalization of
    the other valence basis functions on the frozen Core Orbitals.


 (power of) X  Y  Z  R     Alpha  on Atom
            ==========     =====     ==========

 H                                    1
                                  ---------------------------------------------------------------------------
            0  0  0  0     3.300      1
            0  0  0  0     2.000      2
            0  0  0  0     1.400      3
            0  0  0  0     1.000      4
            0  0  0  0     0.710      5
            1  0  0  0     2.000      6
            0  1  0  0     2.000      7
            0  0  1  0     2.000      8
            1  0  0  0     1.000      9
            0  1  0  0     1.000     10
            0  0  1  0     1.000     11
            2  0  0  0     2.500     12
            1  1  0  0     2.500     13
            1  0  1  0     2.500     14
            0  2  0  0     2.500     15
            0  1  1  0     2.500     16
            0  0  2  0     2.500     17
            2  0  0  0     1.500     18
            1  1  0  0     1.500     19
            1  0  1  0     1.500     20
            0  2  0  0     1.500     21
            0  1  1  0     1.500     22
            0  0  2  0     1.500     23

 Total number of charge fitting functions (nprimf)       107
 Total number of Cartesian basis functions (naos)         23
 Total number of Cartesian core functions  (ncos)          0



 BAS: List of all Elementary Cartesian Basis Functions
 =====================================================

 The numbering in the list below (to the right of the function characteristics) is referred
 to in print-outs of MO eigenvectors and Mulliken populations in the BAS representation
 (as contrasted to the SFO representation).

 Notes:
 1. The functions are characterized by a polynomial prefactor (powers of x,y,z and r) and
    an exponential decay factor alpha.
 2. Since the basis sets are specific for an atom TYPE, the individual functions occur on
    all atoms of that type.
 3. The word 'Core' in the left margin signals that it is a Core Function (CF) : not a
    degree of freedom in the valence set, but only used to ensure orthogonalization of
    the other valence basis functions on the frozen Core Orbitals.


 (power of) X  Y  Z  R     Alpha  on Atom
            ==========     =====     ==========

 H                                    1
                                  ---------------------------------------------------------------------------
            0  0  0  0     3.300      1
            0  0  0  0     2.000      2
            0  0  0  0     1.400      3
            0  0  0  0     1.000      4
            0  0  0  0     0.710      5
            1  0  0  0     2.000      6
            0  1  0  0     2.000      7
            0  0  1  0     2.000      8
            1  0  0  0     1.000      9
            0  1  0  0     1.000     10
            0  0  1  0     1.000     11
            2  0  0  0     2.500     12
            1  1  0  0     2.500     13
            1  0  1  0     2.500     14
            0  2  0  0     2.500     15
            0  1  1  0     2.500     16
            0  0  2  0     2.500     17
            2  0  0  0     1.500     18
            1  1  0  0     1.500     19
            1  0  1  0     1.500     20
            0  2  0  0     1.500     21
            0  1  1  0     1.500     22
            0  0  2  0     1.500     23
1
 ***************************************************************************************************



                                              ***********************
                                              *  T E C H N I C A L  *
                                              ***********************
  



 =============================================================
 P A R A L L E L I Z A T I O N  and  V E C T O R I Z A T I O N
 =============================================================
  
 Nr of parallel processes:                                1
 Maximum vector length in NumInt loops:                 128



 ===============
 I O  vs.  C P U  ***  (store numerical data on disk or recalculate)  ***
 ===============
  
 Basis functions:   recalculate when needed
 Fit functions:     recalculate when needed

 IO buffersize (Mb):                                     64.000000



 =====================
 S C F   U P D A T E S
 =====================
  
 Max. nr. of cycles:                               100
 Convergence criterion:                              0.0000000100
   secondary criterion:                              0.0000000100

 Mix parameter (when DIIS does not apply):           0.2000000000
 Special mix parameter for the first cycle:          1.0000000000


 DIIS (Direct Inversion in Iteration Space)
    Replace damping when SCF Error is below:         0.5000000000
    Apply anyway after SCF cycle:
                                                     5
    (Max.) nr. of expansion vectors:                10

    Upperbound on expansion coefficients:            5.0000000000
    (when exceeded, IterationSpace is re-built)
    2nd Upperbound on coefficients:                 25.0000000000
    (when exceeded, simple damping will be used)
 Automatic ElectronSmearing (in case of problematic SCF convergence) disabled



 =================
 P R E C I S I O N  ***  (General: NumInt, NeglectFunctionTails, ...)  ***
 =================
  

 NumInt:           Target precision:                10.0000000000
 -------           Initial precision:               10.0000000000
                   Min. precision (optimization):   10.0000000000

 Neglect Functions:          Basis functions:        0.1000000000E-11
 ------------------          Fit functions:          0.1000000000E-11



 ===========================
 L I N E A R   S C A L I N G
 ===========================
  

 Cut-off radii density fit:                        0.1000000000E-13
 Overlap cut-off criterion AO matrix elements:     0.1000000000E-11
 Cut-offs for Coulomb potential and fitted density:0.1000000000E-13
 Cut-off criterion for Coulomb multipole terms:    0.1000000000E-13
 Progressive Convergence parameter:                 0.000000000    
1
 ***************************************************************************************************



                                            ***************************
                                            *  C O M P U T A T I O N  *
                                            ***************************
  

 Number of elements of the density matrix on this node (used, total):       276       276



 ====================================================
 Numerical Integration : Voronoi Polyhedra (Te Velde)
 ====================================================
  
 General Accuracy Parameter :                         10.00

 Symmetry used in the points section:  ATOM  


 Summary of the Symmetry Unique Points:
 --------------------------------------
    Nr. of used Symmetry Operators                     1

    Points in the Atomic Spheres                      44
    Points in the Atomic Polyhedra                     0
    Points in the Outer Region                         0
    ----------------------------------------------------
    Total                                             44

    Sum of Weights                                 33854.777883

 Total nr. of points:         44
 Nr. of blocks:                1
 Block length:                44
 Nr. of dummy points:          0


 Test of Precision of the Numerical Integration Grid
 ===================================================

 Integral of the Total Core Density:                   0.00000000000000



 =====
 S C F
 =====
  

 CYCLE    1
 orbitals (Q,E):
 ---------------
 S :1...5            ( 1.00    -0.5000)  ( 0.00    -0.1102)  ( 0.00     0.2912)  ( 0.00     2.1458)
                     ( 0.00    15.1140)
 P :1...2            ( 0.00    -0.0467)  ( 0.00     1.6698)
 D :1...2            ( 0.00     0.4090)  ( 0.00     3.3827)

 CYCLE    2
 d-Pmat  mean:  0.40E-01
 imax=      4: -0.73E+00
 orbitals (Q,E):
 ---------------
 S :1...2            ( 1.00    -0.2213)  ( 0.00     0.0617)
 P :1...1            ( 0.00     0.1820)
 D :1...1            ( 0.00     0.6395)

 CYCLE    3
 d-Pmat  mean:  0.48E-02
 imax=      4:  0.66E-01
 orbitals (Q,E):
 ---------------
 S :1...2            ( 1.00    -0.2392)  ( 0.00     0.0523)
 P :1...1            ( 0.00     0.1713)
 D :1...1            ( 0.00     0.6290)

 CYCLE    4
 d-Pmat  mean:  0.47E-03
 imax=      4: -0.74E-02
 orbitals (Q,E):
 ---------------
 S :1...2            ( 1.00    -0.2386)  ( 0.00     0.0522)
 P :1...1            ( 0.00     0.1716)
 D :1...1            ( 0.00     0.6293)

 CYCLE    5
 d-Pmat  mean:  0.13E-04
 imax=      4:  0.20E-03
 orbitals (Q,E):
 ---------------
 S :1...2            ( 1.00    -0.2386)  ( 0.00     0.0522)
 P :1...1            ( 0.00     0.1716)
 D :1...1            ( 0.00     0.6293)

 CYCLE    6
 d-Pmat  mean:  0.14E-06
 imax=      4:  0.26E-05
 orbitals (Q,E):
 ---------------
 S :1...2            ( 1.00    -0.2386)  ( 0.00     0.0522)
 P :1...1            ( 0.00     0.1716)
 D :1...1            ( 0.00     0.6293)

 CYCLE    7
 d-Pmat  mean:  0.24E-08
 imax=      4:  0.39E-07
 orbitals (Q,E):
 ---------------
 S :1...2            ( 1.00    -0.2386)  ( 0.00     0.0522)
 P :1...1            ( 0.00     0.1716)
 D :1...1            ( 0.00     0.6293)

 SCF CONVERGED

 CYCLE    8
1
 ***************************************************************************************************



                                                *******************
                                                *  R E S U L T S  *
                                                *******************
  
 *** Setting up for NEW gradients in focky
 *** Using FIT density in focky

 Scaled ZORA Orbital Energies, per Irrep and Spin:
 =================================================
                        Occup              E (au)              E (eV)       Diff (eV) with prev. cycle
                        -----      --------------------        ------       --------------------------
 S
               1        1.000     -0.23860414448782E+00        -6.493              -2.15E-10
               2        0.000      0.52240780773457E-01         1.422
               3        0.000      0.50128711414823E+00        13.641
               4        0.000      0.23892611828179E+01        65.015
               5        0.000      0.15295018626306E+02       416.199
 P
               1        0.000      0.17156247999749E+00         4.668
               2        0.000      0.19364620405874E+01        52.694
 D
               1        0.000      0.62928666110103E+00        17.124
               2        0.000      0.36544214463356E+01        99.442


 Partially Occupied:
               1 S                -0.23860414448782E+00
  
 LUMO :        2 S                 0.52240780773457E-01
  


 Orbital Energies, all Irreps
 ========================================

 Irrep        no.  (spin)   Occup              E (au)                E (eV)
 ---------------------------------------------------------------------------
 S             1             1.00       -0.23860414448782E+00        -6.4927
 S             2             0.00        0.52240780773457E-01         1.4215
 P             1             0.00        0.17156247999749E+00         4.6685
 S             3             0.00        0.50128711414823E+00        13.6407
 D             1             0.00        0.62928666110103E+00        17.1238
 P             2             0.00        0.19364620405874E+01        52.6938
 S             4             0.00        0.23892611828179E+01        65.0151
 D             2             0.00        0.36544214463356E+01        99.4419
 S             5             0.00        0.15295018626306E+02       416.1986


 All Electron Calculation, thus no Orbital Energies of the Core Orbitals are calculated



 =======================================
 M U L L I K E N   P O P U L A T I O N S
 =======================================
  
 The survey below gives for each atom:
 a) the total charge (Z minus electrons)
 b) the net spin polarization (nr of electrons spin-A minus spin-B)
 c) for each spin the atomic electron valence density (integrated) per L-value.

 Atom              Charge    Spin density          S         P         D         F
 ----              ------    ------------       ------    ------    ------    ------
 1 H               0.0000                       1.0000    0.0000    0.0000    0.0000

 Populations of individual BAS functions
 ----------------------------------------
 1 H           -0.0037  0.0405  0.0399  0.5670  0.3563  0.0000  0.0000  0.0000  0.0000  0.0000
                0.0000  0.0000  0.0000  0.0000  0.0000  0.0000  0.0000  0.0000  0.0000  0.0000
                0.0000  0.0000  0.0000

 Gross Charges per Atom (Z minus electrons)
 ==========================================
             0.0000
 Net Total:  0.00000000


 Atom-Atom Population Matrix (off-diagonal elements not doubled)
 ===============================================================

     1 :     1.0000



 =============
 Dipole Moment  ***  (Debye)  ***
 =============
  
 Vector   :         0.00000000      0.00000000      0.00000000
 Magnitude:         0.00000000

 This molecular dipole moment is calculated with analytic integration



 =========================================
 Quadrupole Moment (Buckingham convention)  ***  (a.u.)  ***
 =========================================
  
      quad-xx        quad-xy        quad-xz        quad-yy        quad-yz        quad-zz
      0.00000000     0.00000000     0.00000000     0.00000000     0.00000000     0.00000000

 This molecular quadrupole moment is calculated with analytic integration



 ===============================================================================
 Electrostatic potential at the Nuclei due to valence electrons and other nuclei
 ===============================================================================
  
         Atom                  Potential
         ----                  ---------
     1)   H                   0.94463948
 
 
 ========================
 No memory problems found
 ========================
 
 Maximum number of active allocate calls:         378
 
 *******************************************************************************

                             A D F   E X I T
 NORMAL TERMINATION



 =================
 Timing Statistics
 =================
  
 Total Used :                     CPU=        0.10      System=        0.06     Elapsed=        0.16

 Calls  Section                     ( Mean, Percentage )
 ---------------------------------------------------------------------------------------------------
     3  ><      ................      0.00    0.50             0.00    0.03             0.00    0.33
     1  INIT    ................      0.01    6.08             0.00    0.00             0.01    3.92
     1  GEOMET  ................      0.01    6.20             0.03   53.54             0.04   23.50
     1  INPUTA  ................      0.00    0.97             0.00    0.00             0.00    0.61
     1  MAINSY  ................      0.00    3.85             0.00    0.00             0.00    2.44
     1  SYMFIT  ................      0.00    0.25             0.00    0.00             0.00    0.16
     1  CORORT  ................      0.00    0.16             0.00    0.00             0.00    0.10
     1  SYMORB  ................      0.00    0.46             0.00    0.00             0.00    0.29
     1  FITINT  ................      0.00    2.67             0.00    0.00             0.00    1.69
     1  CLSMAT  ................      0.00    0.19             0.00    0.00             0.00    0.12
     1  ORTHON  ................      0.00    0.97             0.00    0.00             0.00    0.61
     1  GENPT   ................      0.00    4.42             0.00    1.37             0.01    3.30
     1  PTBAS   ................      0.00    0.00             0.00    3.16             0.00    1.15
     8  FOCKY   ................      0.01   46.45             0.00   25.75             0.01   38.85
     8  FOCKTR  ................      0.00    1.28             0.00    0.64             0.00    1.05
     8  FOCKNM  ................      0.00    0.14             0.00    0.09             0.00    0.12
     8  SDIIS   ................      0.00    1.69             0.00    1.35             0.00    1.58
     8  EMERGE  ................      0.00    9.84             0.00    7.69             0.00    9.04
     1  COREPS  ................      0.00    1.18             0.00    1.79             0.00    1.40
     1  POPAN   ................      0.00    0.00             0.00    2.50             0.00    0.91
     1  DEBYE   ................      0.00    0.00             0.00    0.52             0.00    0.19
     1  QMPOT   ................      0.00    1.84             0.00    0.12             0.00    1.21
     1  EXIT PROCEDURE .........      0.01   10.86             0.00    1.44             0.01    7.41


 Currently Open Files (EXIT00)
 ====================

 Unit    Access Format  Status   Type       Ident (file)
 -------------------------------------------------------
   3      SEQ    FORM   TRANSP  NORMAL      LOGFILE
                                          ( logfile )


 Buffered I/O statistics
 =======================
 Memory available:                     67108864
 Number of records fitting in memory:     16131
 Input :   1.3% of                         3604  *4k bytes
 Output:  10.6% of                         1855  *4k bytes
 Records from serial files evicted:           0
                    others evicted:           0
 Hash table lookups:      14887 with          0 conflicts (  0.00%)

 ***************************************************************************************************
 (LOGFILE)
 <Jan01-2013> <00:00:00>  DIRAC 2013.01  RunTime: Jan01-2013 00:00:00  Nodes: 1  Procs: 1
 <Jan01-2013> <00:00:00>  NORMAL TERMINATION
 <Jan01-2013> <00:00:00>  END
 <Jan01-2013> <00:00:00>  ADF 2013.01  RunTime: Jan01-2013 00:00:00  Nodes: 1  Procs: 1
 <Jan01-2013> <00:00:00>  Hydrogen (QZ, all electron, 5S 2P 2D)
 <Jan01-2013> <00:00:00>  RunType   : CREATE
 <Jan01-2013> <00:00:00>  Net Charge: 0 (Nuclei minus Electrons)
 <Jan01-2013> <00:00:00>  Symmetry  : ATOM
  Coordinates
    Atom         X           Y           Z   (Angstrom)
    1.H         0.000000    0.000000    0.000000
 <Jan01-2013> <00:00:00>  >>>> CORORT
 <Jan01-2013> <00:00:00>  >>>> FITINT
 <Jan01-2013> <00:00:00>  >>>> CLSMAT
 <Jan01-2013> <00:00:00>  >>>> ORTHON
 <Jan01-2013> <00:00:00>  >>>> GENPT
 <Jan01-2013> <00:00:00>  Acc.Num.Int.=  10.000
 <Jan01-2013> <00:00:00>  Block Length=  44
 <Jan01-2013> <00:00:00>  >>>> PTBAS
 <Jan01-2013> <00:00:00>  >>>> CYCLE
 <Jan01-2013> <00:00:01>    1
 <Jan01-2013> <00:00:01>    2  ErrMat   0.03803841  MaxEl  0.03078708
 <Jan01-2013> <00:00:01>    3  ErrMat   0.00916622  MaxEl -0.00901560
 <Jan01-2013> <00:00:01>    4  ErrMat   0.00035667  MaxEl  0.00031421
 <Jan01-2013> <00:00:01>    5  ErrMat   0.00000962  MaxEl -0.00000892
 <Jan01-2013> <00:00:01>    6  ErrMat   0.00000013  MaxEl  0.00000008
 <Jan01-2013> <00:00:01>    7  ErrMat   0.00000000  MaxEl  0.00000000
 <Jan01-2013> <00:00:01>  SCF converged
 <Jan01-2013> <00:00:01>    8  ErrMat   0.00000000  MaxEl  0.00000000
 <Jan01-2013> <00:00:01>   Solutions with partially occupied orbitals may not be
 <Jan01-2013> <00:00:01>   lowest in energy. You might consider lowering the
 <Jan01-2013> <00:00:01>   symmetry in the input and explicitly specifying integer
 <Jan01-2013> <00:00:01>   occupations. In that case always check that you obtain
 <Jan01-2013> <00:00:01>   an aufbau solution.
 <Jan01-2013> <00:00:01>  >>>> POPAN
 <Jan01-2013> <00:00:01>  >>>> DEBYE
 <Jan01-2013> <00:00:01>  NORMAL TERMINATION
 <Jan01-2013> <00:00:01>  END

 *******************************************************************************
 *                                                                             *
 *  -------------------------------------                                      *
 *   Amsterdam Density Functional  (ADF)         2013.01   April 2, 2013       *
 *  -------------------------------------                                      *
 *                                               Build 201304112106            *
 *                                                                             *
 *                                                                             *
 *                            =====================                            *
 *                            |                   |                            *
 *                            |     D I R A C     |                            *
 *                            |                   |                            *
 *                            =====================                            *
 *                                                                             *
 *                                                                             *
 *   Online information and documentation:  http://www.scm.com                 *
 *   E-mail:  support@scm.com   info@scm.com                                   *
 *                                                                             *
 *   Scientific publications using ADF results must be properly referenced     *
 *   See the User Manuals (or the web site) for recommended citations          *
 *   The terms and conditions of the End User License Agreement apply to       *
 *   the use of ADF, http://www.scm.com/Sales/LicAgreement.html                *
 *                                                                             *
 ****************************  x86_64_linux_intel  *****************************
 
 Licensed to: Prof. Cacier Hadad / University of Antioquia / Medellin / COLOMBIA
 SCM User ID: u15319
  
 DIRAC 2013.01  RunTime: Jan01-2013 00:00:01  Nodes: 1  Procs: 1

 Temporary files are created in /home/scratch/adf/kid_0.EZPyJ5

1
 OXYGEN ATOM all electron RELATIVISTIC, Point Nuc, A and c fr
 N J RN H ZN XION ANUC CLIGHT
 5000    4100.00000000197.36710137  8.00000000  0.00000000   15.994914  0.1370360E+03
  PH   PHI     EPS        DEL        DELRVR
  0.30  0.30     2500.00  0.00001000  0.00001000
 IDIRC  NC1  NDEBU NPRIN  IPUN IRCOR IWCOR
   1   300     0     0     0     0     0
   XALPHA      XLATTER      RNUC
  0.70000000  0.00000000  0.00000000 Point Charge
   XN   XL   XJ      XE          XZ      XDELL
  1.0  0.0  0.5      -5.000       2.000     0.00000
  2.0  0.0  0.5      -1.000       2.000     0.00000
  2.0  1.0  0.5      -1.000       2.000     0.00000
  2.0  1.0  1.5      -1.000       2.000     0.00000
 ICORP=  0  NPCL=  0  DEMP=0.00  PEPS=0.000000
 R(1)=  0.1000000E-08 D=  0.1005080E+01 RNUC=  0.0000000E+00
 converged at cycle   28  DENSITY AVERAGING    0.2400
  MAXIMUM ERROR IN R.V(R) IS   0.81125670E-05
 Q,EY,EV,EZ,ESUM,ETOT,RHO  0.800000E+01 -0.101247E+02 -0.114961E+03 -0.177573E+03 -0.405053E+02 -0.743427E+02  0.414766E-14


 DIRAC CALCULATION
1                    OXYGEN ATOM all electron RELATIVISTIC, Point Nuc, A and c from libtc


 EXCHANGE COEFFICIENT=  0.7000000           TAIL CORRECTION=  0.           NUCLEAR RADIUS=  0.000E+00
0                       ORBITAL    N    L    J     ELECTRONS     EIGENVALUE                DELTA OF EIGENV.

                          1S1/2  1.0  0.0  0.5     2.000       -0.1880014E+02                 0.7264359E-06
                          2S1/2  2.0  0.0  0.5     2.000       -0.8412236E+00                 0.5932752E-05
                          2P1/2  2.0  1.0  0.5     2.000       -0.3063203E+00                 0.5998471E-05
                          2P3/2  2.0  1.0  1.5     2.000       -0.3049609E+00                 0.5986971E-05


                                        NUCLEAR CHARGE=    8.000000
                            INTEGRAL OF CHARGE DENSITY=    8.000000
                           SUM OF THE ORBITAL ENERGIES=    -40.5053
                                          TOTAL ENERGY=    -74.3427
                                        KINETIC ENERGY=     74.4552
                             NUCLEAR ATTRACTION ENERGY=   -177.5730
                             ELECTRON REPULSION ENERGY=     36.3686
                                       EXCHANGE ENERGY=     -7.5935

 *******************************************************************************

                             D I R A C   E X I T
 NORMAL TERMINATION



 =================
 Timing Statistics
 =================
  
 Total Used :                     CPU=        0.11      System=        0.02     Elapsed=        0.13

 Calls  Section                     ( Mean, Percentage )
 ---------------------------------------------------------------------------------------------------
     2  ><      ................      0.00    0.01             0.00    0.00             0.00    0.01
     1  EXIT PROCEDURE .........      0.11   99.99             0.02  100.00             0.13   99.99


 Currently Open Files (EXIT00)
 ====================

 Unit    Access Format  Status   Type       Ident (file)
 -------------------------------------------------------
   3      SEQ    FORM   TRANSP  NORMAL      LOGFILE
                                          ( logfile )


 Buffered I/O statistics
 =======================
 Memory available:                     67108864
 Number of records fitting in memory:     16131
 Input : 100.0% of                            0  *4k bytes
 Output: 100.0% of                            0  *4k bytes
 Records from serial files evicted:           0
                    others evicted:           0
 Hash table lookups:          0 with          0 conflicts (100.00%)
(INPUT FILE)
Create O   file=/home/danian/Documents/programas/adf2013.01/atomicdata/ZORA/QZ4P/O
 XC
 GGA PBE
End
relativistic ZORA
Corepotentials t12.rel
End Input

 *******************************************************************************
 *                                                                             *
 *  -------------------------------------                                      *
 *   Amsterdam Density Functional  (ADF)         2013.01   April 2, 2013       *
 *  -------------------------------------                                      *
 *                                               Build 201304112215            *
 *                                                                             *
 *                                                                             *
 *                              =================                              *
 *                              |               |                              *
 *                              |     A D F     |                              *
 *                              |               |                              *
 *                              =================                              *
 *                                                                             *
 *                                                                             *
 *   Online information and documentation:  http://www.scm.com                 *
 *   E-mail:  support@scm.com   info@scm.com                                   *
 *                                                                             *
 *   Scientific publications using ADF results must be properly referenced     *
 *   See the User Manuals (or the web site) for recommended citations          *
 *   The terms and conditions of the End User License Agreement apply to       *
 *   the use of ADF, http://www.scm.com/Sales/LicAgreement.html                *
 *                                                                             *
 ********************  x86_64_linux_intel / platform_mpi  **********************
 
 Licensed to: Prof. Cacier Hadad / University of Antioquia / Medellin / COLOMBIA
 SCM User ID: u15319
  
 ADF 2013.01  RunTime: Jan01-2013 00:00:01  Nodes: 1  Procs: 1

 Temporary files are created in /home/scratch/adf/kid_0.i0kl1h

 Oxygen (QZ, all electron, 8S 4P 2D 2F)



 ===========================
 A T T A C H E D   F I L E S
 ===========================
  
 CREATE - Data File:    /home/danian/Documents/programas/adf2013.01/atomicdata/ZORA/QZ4P/O
                        Oxygen (QZ, all electron, 8S 4P 2D 2F)
 Core Potentials:
         file : t12.rel



 ===============================
 M O D E L   P A R A M E T E R S
 ===============================
  
 DENSITY FUNCTIONAL POTENTIAL (scf)
    LDA:                               PW92                                    == Not Default ==
    Gradient Corrections:              PBEc PBEx                               == Not Default ==

 SPIN  (restricted / unrestr.)
    Molecule:                          Restricted                               

 OTHER ASPECTS
    Relativistic Corrections:          scalar (ZORA,SAPA)                      == Not Default ==

    Nuclear Charge Density Model:      Point Charge Nuclei                                                                                                                                                                                     
    Core Treatment:                    Frozen Orbital(s)                        

    Hyperfine or Zeeman Interaction:   ---                                      



 =====================================
 S Y M M E T R Y ,   E L E C T R O N S
 =====================================
  
 Symmetry: ATOM

 Irreducible Representations, including subspecies
 -------------------------------------------------
 S
 P:x  P:y  P:z
 D:z2  D:x2-y2  D:xy  D:xz  D:yz
 F:z3  F:z  F:xyz  F:z2x  F:z2y  F:x  F:y


 Configuration of Valence Electrons
 ==================================

          Occupation Numbers
          -------------------------------------------------
 S        2*2
 P        4
 D        0
 F        0
          -------------------------------------------------

 Total:   8

 Net Charge: 0 (Nuclei minus Electrons)

 Preset values for MO occupations will be applied through SCF cycle no. 1000000
 Thereafter, the program will assign electrons to MOs that are spatially
 similar to the occupied MOs in a "reference" cycle ("KeepOrbitals").
 The reference cycle is always the PREVIOUS cycle: it will evolve with
 the SCF procedure.



 ================================
 (Slater-type)  F U N C T I O N S  ***  (Basis and Fit)  ***
 ================================
  

 Atom Type    1  (O)
 ==============

 Valence Basis Sets:  16
 -----------------------
   1 S   14.800000
   1 S    8.750000
   1 S    6.650000
   2 S    7.100000
   2 S    3.200000
   2 S    2.050000
   2 S    1.500000
   2 S    0.750000
   2 P    5.700000
   2 P    3.050000
   2 P    1.650000
   2 P    1.000000
   3 D    2.500000
   3 D    1.500000
   4 F    4.000000
   4 F    2.000000

 Charge Fitting Sets (for the computation of the Coulomb Potential):  37
 -----------------------------------------------------------------------
   1 S   29.600000
   1 S   22.760000
   1 S   17.500000
   1 S   11.580000
   2 S   14.160000
   2 S   10.290000
   2 S    7.480000
   2 S    5.430000
   3 S    5.780000
   3 S    4.410000
   3 S    3.370000
   3 S    2.570000
   3 S    1.960000
   3 S    1.500000
   2 P   14.450000
   2 P    9.770000
   2 P    6.610000
   3 P    6.560000
   3 P    4.710000
   3 P    3.390000
   3 P    2.430000
   3 P    1.750000
   3 D   11.400000
   3 D    7.640000
   3 D    5.120000
   4 D    4.550000
   4 D    3.200000
   4 D    2.250000
   4 F   12.750000
   4 F    8.120000
   4 F    5.170000
   5 F    4.130000
   5 F    2.750000
   5 G    9.700000
   5 G    6.560000
   5 G    4.440000
   5 G    3.000000


 BAS: List of all Elementary Cartesian Basis Functions
 =====================================================

 The numbering in the list below (to the right of the function characteristics) is referred
 to in print-outs of MO eigenvectors and Mulliken populations in the BAS representation
 (as contrasted to the SFO representation).

 Notes:
 1. The functions are characterized by a polynomial prefactor (powers of x,y,z and r) and
    an exponential decay factor alpha.
 2. Since the basis sets are specific for an atom TYPE, the individual functions occur on
    all atoms of that type.
 3. The word 'Core' in the left margin signals that it is a Core Function (CF) : not a
    degree of freedom in the valence set, but only used to ensure orthogonalization of
    the other valence basis functions on the frozen Core Orbitals.


 (power of) X  Y  Z  R     Alpha  on Atom
            ==========     =====     ==========

 O                                    1
                                  ---------------------------------------------------------------------------
            0  0  0  0    14.800      1
            0  0  0  0     8.750      2
            0  0  0  0     6.650      3
            0  0  0  1     7.100      4
            0  0  0  1     3.200      5
            0  0  0  1     2.050      6
            0  0  0  1     1.500      7
            0  0  0  1     0.750      8
            1  0  0  0     5.700      9
            0  1  0  0     5.700     10
            0  0  1  0     5.700     11
            1  0  0  0     3.050     12
            0  1  0  0     3.050     13
            0  0  1  0     3.050     14
            1  0  0  0     1.650     15
            0  1  0  0     1.650     16
            0  0  1  0     1.650     17
            1  0  0  0     1.000     18
            0  1  0  0     1.000     19
            0  0  1  0     1.000     20
            2  0  0  0     2.500     21
            1  1  0  0     2.500     22
            1  0  1  0     2.500     23
            0  2  0  0     2.500     24
            0  1  1  0     2.500     25
            0  0  2  0     2.500     26
            2  0  0  0     1.500     27
            1  1  0  0     1.500     28
            1  0  1  0     1.500     29
            0  2  0  0     1.500     30
            0  1  1  0     1.500     31
            0  0  2  0     1.500     32
            3  0  0  0     4.000     33
            2  1  0  0     4.000     34
            2  0  1  0     4.000     35
            1  2  0  0     4.000     36
            1  1  1  0     4.000     37
            1  0  2  0     4.000     38
            0  3  0  0     4.000     39
            0  2  1  0     4.000     40
            0  1  2  0     4.000     41
            0  0  3  0     4.000     42
            3  0  0  0     2.000     43
            2  1  0  0     2.000     44
            2  0  1  0     2.000     45
            1  2  0  0     2.000     46
            1  1  1  0     2.000     47
            1  0  2  0     2.000     48
            0  3  0  0     2.000     49
            0  2  1  0     2.000     50
            0  1  2  0     2.000     51
            0  0  3  0     2.000     52

 Total number of charge fitting functions (nprimf)       184
 Total number of Cartesian basis functions (naos)         52
 Total number of Cartesian core functions  (ncos)          0



 BAS: List of all Elementary Cartesian Basis Functions
 =====================================================

 The numbering in the list below (to the right of the function characteristics) is referred
 to in print-outs of MO eigenvectors and Mulliken populations in the BAS representation
 (as contrasted to the SFO representation).

 Notes:
 1. The functions are characterized by a polynomial prefactor (powers of x,y,z and r) and
    an exponential decay factor alpha.
 2. Since the basis sets are specific for an atom TYPE, the individual functions occur on
    all atoms of that type.
 3. The word 'Core' in the left margin signals that it is a Core Function (CF) : not a
    degree of freedom in the valence set, but only used to ensure orthogonalization of
    the other valence basis functions on the frozen Core Orbitals.


 (power of) X  Y  Z  R     Alpha  on Atom
            ==========     =====     ==========

 O                                    1
                                  ---------------------------------------------------------------------------
            0  0  0  0    14.800      1
            0  0  0  0     8.750      2
            0  0  0  0     6.650      3
            0  0  0  1     7.100      4
            0  0  0  1     3.200      5
            0  0  0  1     2.050      6
            0  0  0  1     1.500      7
            0  0  0  1     0.750      8
            1  0  0  0     5.700      9
            0  1  0  0     5.700     10
            0  0  1  0     5.700     11
            1  0  0  0     3.050     12
            0  1  0  0     3.050     13
            0  0  1  0     3.050     14
            1  0  0  0     1.650     15
            0  1  0  0     1.650     16
            0  0  1  0     1.650     17
            1  0  0  0     1.000     18
            0  1  0  0     1.000     19
            0  0  1  0     1.000     20
            2  0  0  0     2.500     21
            1  1  0  0     2.500     22
            1  0  1  0     2.500     23
            0  2  0  0     2.500     24
            0  1  1  0     2.500     25
            0  0  2  0     2.500     26
            2  0  0  0     1.500     27
            1  1  0  0     1.500     28
            1  0  1  0     1.500     29
            0  2  0  0     1.500     30
            0  1  1  0     1.500     31
            0  0  2  0     1.500     32
            3  0  0  0     4.000     33
            2  1  0  0     4.000     34
            2  0  1  0     4.000     35
            1  2  0  0     4.000     36
            1  1  1  0     4.000     37
            1  0  2  0     4.000     38
            0  3  0  0     4.000     39
            0  2  1  0     4.000     40
            0  1  2  0     4.000     41
            0  0  3  0     4.000     42
            3  0  0  0     2.000     43
            2  1  0  0     2.000     44
            2  0  1  0     2.000     45
            1  2  0  0     2.000     46
            1  1  1  0     2.000     47
            1  0  2  0     2.000     48
            0  3  0  0     2.000     49
            0  2  1  0     2.000     50
            0  1  2  0     2.000     51
            0  0  3  0     2.000     52
1
 ***************************************************************************************************



                                              ***********************
                                              *  T E C H N I C A L  *
                                              ***********************
  



 =============================================================
 P A R A L L E L I Z A T I O N  and  V E C T O R I Z A T I O N
 =============================================================
  
 Nr of parallel processes:                                1
 Maximum vector length in NumInt loops:                 128



 ===============
 I O  vs.  C P U  ***  (store numerical data on disk or recalculate)  ***
 ===============
  
 Basis functions:   recalculate when needed
 Fit functions:     recalculate when needed

 IO buffersize (Mb):                                     64.000000



 =====================
 S C F   U P D A T E S
 =====================
  
 Max. nr. of cycles:                               100
 Convergence criterion:                              0.0000000100
   secondary criterion:                              0.0000000100

 Mix parameter (when DIIS does not apply):           0.2000000000
 Special mix parameter for the first cycle:          1.0000000000


 DIIS (Direct Inversion in Iteration Space)
    Replace damping when SCF Error is below:         0.5000000000
    Apply anyway after SCF cycle:
                                                     5
    (Max.) nr. of expansion vectors:                10

    Upperbound on expansion coefficients:            5.0000000000
    (when exceeded, IterationSpace is re-built)
    2nd Upperbound on coefficients:                 25.0000000000
    (when exceeded, simple damping will be used)
 Automatic ElectronSmearing (in case of problematic SCF convergence) disabled



 =================
 P R E C I S I O N  ***  (General: NumInt, NeglectFunctionTails, ...)  ***
 =================
  

 NumInt:           Target precision:                10.0000000000
 -------           Initial precision:               10.0000000000
                   Min. precision (optimization):   10.0000000000

 Neglect Functions:          Basis functions:        0.1000000000E-11
 ------------------          Fit functions:          0.1000000000E-11



 ===========================
 L I N E A R   S C A L I N G
 ===========================
  

 Cut-off radii density fit:                        0.1000000000E-13
 Overlap cut-off criterion AO matrix elements:     0.1000000000E-11
 Cut-offs for Coulomb potential and fitted density:0.1000000000E-13
 Cut-off criterion for Coulomb multipole terms:    0.1000000000E-13
 Progressive Convergence parameter:                 0.000000000    
1
 ***************************************************************************************************



                                            ***************************
                                            *  C O M P U T A T I O N  *
                                            ***************************
  

 Number of elements of the density matrix on this node (used, total):      1378      1378



 ====================================================
 Numerical Integration : Voronoi Polyhedra (Te Velde)
 ====================================================
  
 General Accuracy Parameter :                         10.00

 Symmetry used in the points section:  ATOM  


 Summary of the Symmetry Unique Points:
 --------------------------------------
    Nr. of used Symmetry Operators                     1

    Points in the Atomic Spheres                      61
    Points in the Atomic Polyhedra                     0
    Points in the Outer Region                         0
    ----------------------------------------------------
    Total                                             61

    Sum of Weights                                 58501.056183

 Total nr. of points:         61
 Nr. of blocks:                1
 Block length:                61
 Nr. of dummy points:          0


 Test of Precision of the Numerical Integration Grid
 ===================================================

 Integral of the Total Core Density:                   0.00000000000000



 =====
 S C F
 =====
  

 CYCLE    1
 orbitals (Q,E):
 ---------------
 S :1...8            ( 2.00   -32.0159)  ( 2.00    -8.0044)  ( 0.00    -3.5574)  ( 0.00    -1.9901)
                     ( 0.00    -1.2515)  ( 0.00     4.1058)  ( 0.00    41.2206)  ( 0.00   308.5800)
 P :1...4            ( 4.00    -7.9758)  ( 0.00    -3.5116)  ( 0.00    -1.8856)  ( 0.00     3.1956)
 D :1...2            ( 0.00    -3.5495)  ( 0.00    -1.9917)
 F :1...2            ( 0.00    -1.9999)  ( 0.00     1.0590)

 CYCLE    2
 d-Pmat  mean:  0.11E+01
 imax=      3: -0.25E+02
 orbitals (Q,E):
 ---------------
 S :1...3            ( 2.00   -14.5566)  ( 2.00    -0.0356)  ( 0.00     0.1667)
 P :1...2            ( 4.00     0.2048)  ( 0.00     0.7903)
 D :1...1            ( 0.00     0.7381)
 F :1...1            ( 0.00     1.6042)

 CYCLE    3
 d-Pmat  mean:  0.30E+00
 imax=     20: -0.24E+01
 orbitals (Q,E):
 ---------------
 S :1...3            ( 2.00   -16.2388)  ( 2.00    -0.4301)  ( 0.00     0.0620)
 P :1...2            ( 4.00     0.0108)  ( 0.00     0.4058)
 D :1...1            ( 0.00     0.5775)
 F :1...1            ( 0.00     1.4155)

 CYCLE    4
 d-Pmat  mean:  0.10E+00
 imax=     20: -0.11E+01
 orbitals (Q,E):
 ---------------
 S :1...3            ( 2.00   -17.2725)  ( 2.00    -0.6986)  ( 0.00     0.0275)
 P :1...2            ( 4.00    -0.1717)  ( 0.00     0.2612)
 D :1...1            ( 0.00     0.5085)
 F :1...1            ( 0.00     1.3362)

 CYCLE    5
 d-Pmat  mean:  0.56E-01
 imax=      3:  0.70E+00
 orbitals (Q,E):
 ---------------
 S :1...3            ( 2.00   -18.8741)  ( 2.00    -0.8425)  ( 0.00     0.0251)
 P :1...2            ( 4.00    -0.2957)  ( 0.00     0.2201)
 D :1...1            ( 0.00     0.5505)
 F :1...1            ( 0.00     1.3859)

 CYCLE    6
 d-Pmat  mean:  0.57E-02
 imax=      2:  0.75E-01
 orbitals (Q,E):
 ---------------
 S :1...3            ( 2.00   -18.9263)  ( 2.00    -0.8875)  ( 0.00     0.0144)
 P :1...2            ( 4.00    -0.3386)  ( 0.00     0.1983)
 D :1...1            ( 0.00     0.5241)
 F :1...1            ( 0.00     1.3583)

 CYCLE    7
 d-Pmat  mean:  0.80E-03
 imax=      6: -0.45E-02
 orbitals (Q,E):
 ---------------
 S :1...3            ( 2.00   -18.9106)  ( 2.00    -0.8796)  ( 0.00     0.0160)
 P :1...2            ( 4.00    -0.3310)  ( 0.00     0.2007)
 D :1...1            ( 0.00     0.5265)
 F :1...1            ( 0.00     1.3609)

 CYCLE    8
 d-Pmat  mean:  0.91E-04
 imax=      6:  0.77E-03
 orbitals (Q,E):
 ---------------
 S :1...3            ( 2.00   -18.9122)  ( 2.00    -0.8804)  ( 0.00     0.0159)
 P :1...2            ( 4.00    -0.3317)  ( 0.00     0.2005)
 D :1...1            ( 0.00     0.5262)
 F :1...1            ( 0.00     1.3606)

 CYCLE    9
 d-Pmat  mean:  0.72E-06
 imax=      2: -0.12E-04
 orbitals (Q,E):
 ---------------
 S :1...3            ( 2.00   -18.9122)  ( 2.00    -0.8804)  ( 0.00     0.0159)
 P :1...2            ( 4.00    -0.3317)  ( 0.00     0.2005)
 D :1...1            ( 0.00     0.5262)
 F :1...1            ( 0.00     1.3606)

 CYCLE   10
 d-Pmat  mean:  0.12E-07
 imax=      6: -0.16E-06
 orbitals (Q,E):
 ---------------
 S :1...3            ( 2.00   -18.9122)  ( 2.00    -0.8804)  ( 0.00     0.0159)
 P :1...2            ( 4.00    -0.3317)  ( 0.00     0.2005)
 D :1...1            ( 0.00     0.5262)
 F :1...1            ( 0.00     1.3606)

 CYCLE   11
 d-Pmat  mean:  0.14E-09
 imax=      6: -0.15E-08
 orbitals (Q,E):
 ---------------
 S :1...3            ( 2.00   -18.9122)  ( 2.00    -0.8804)  ( 0.00     0.0159)
 P :1...2            ( 4.00    -0.3317)  ( 0.00     0.2005)
 D :1...1            ( 0.00     0.5262)
 F :1...1            ( 0.00     1.3606)

 SCF CONVERGED

 CYCLE   12
1
 ***************************************************************************************************



                                                *******************
                                                *  R E S U L T S  *
                                                *******************
  
 *** Setting up for NEW gradients in focky
 *** Using FIT density in focky

 Scaled ZORA Orbital Energies, per Irrep and Spin:
 =================================================
                        Occup              E (au)              E (eV)       Diff (eV) with prev. cycle
                        -----      --------------------        ------       --------------------------
 S
               1        2.000     -0.18912163588779E+02      -514.626               4.75E-09
               2        2.000     -0.88042536023933E+00       -23.958               4.99E-09
               3        0.000      0.15917244304958E-01         0.433
               4        0.000      0.47157190212927E+00        12.832
               5        0.000      0.25092163553859E+01        68.279
               6        0.000      0.11901959077277E+02       323.869
               7        0.000      0.52347890775244E+02      1424.459
               8        0.000      0.32159312652146E+03      8750.994
 P
               1        4.000     -0.33172720131057E+00        -9.027               4.92E-09
               2        0.000      0.20052917663188E+00         5.457
               3        0.000      0.16594440945136E+01        45.156
               4        0.000      0.12142335979722E+02       330.410
 D
               1        0.000      0.52623159774356E+00        14.319
               2        0.000      0.24055384910366E+01        65.458
 F
               1        0.000      0.13606224428469E+01        37.024
               2        0.000      0.70188296926901E+01       190.992


 Partially Occupied:
               1 P                -0.33172720131057E+00
  
 HOMO :        2 S                -0.88042536023933E+00
 LUMO :        3 S                 0.15917244304958E-01
  


 Orbital Energies, all Irreps
 ========================================

 Irrep        no.  (spin)   Occup              E (au)                E (eV)
 ---------------------------------------------------------------------------
 S             1             2.00       -0.18912163588779E+02      -514.6262
 S             2             2.00       -0.88042536023933E+00       -23.9576
 P             1             4.00       -0.33172720131057E+00        -9.0268
 S             3             0.00        0.15917244304958E-01         0.4331
 P             2             0.00        0.20052917663188E+00         5.4567
 S             4             0.00        0.47157190212927E+00        12.8321
 D             1             0.00        0.52623159774356E+00        14.3195
 F             1             0.00        0.13606224428469E+01        37.0244
 P             3             0.00        0.16594440945136E+01        45.1558
 D             2             0.00        0.24055384910366E+01        65.4580
 S             5             0.00        0.25092163553859E+01        68.2793
 F             2             0.00        0.70188296926901E+01       190.9921
 S             6             0.00        0.11901959077277E+02       323.8688
 P             4             0.00        0.12142335979722E+02       330.4098
 S             7             0.00        0.52347890775244E+02      1424.4586
 S             8             0.00        0.32159312652146E+03      8750.9942


 All Electron Calculation, thus no Orbital Energies of the Core Orbitals are calculated



 =======================================
 M U L L I K E N   P O P U L A T I O N S
 =======================================
  
 The survey below gives for each atom:
 a) the total charge (Z minus electrons)
 b) the net spin polarization (nr of electrons spin-A minus spin-B)
 c) for each spin the atomic electron valence density (integrated) per L-value.

 Atom              Charge    Spin density          S         P         D         F
 ----              ------    ------------       ------    ------    ------    ------
 1 O               0.0000                       4.0000    4.0000    0.0000    0.0000

 Populations of individual BAS functions
 ----------------------------------------
 1 O            0.0407  0.7707  1.2791 -0.1485  0.7639  1.0393  0.2537  0.0009  0.0450  0.0450
                0.0450  0.4807  0.4807  0.4807  0.6422  0.6422  0.6422  0.1654  0.1654  0.1654
                0.0000  0.0000  0.0000  0.0000  0.0000  0.0000  0.0000  0.0000  0.0000  0.0000
                0.0000  0.0000  0.0000  0.0000  0.0000  0.0000  0.0000  0.0000  0.0000  0.0000
                0.0000  0.0000  0.0000  0.0000  0.0000  0.0000  0.0000  0.0000  0.0000  0.0000
                0.0000  0.0000

 Gross Charges per Atom (Z minus electrons)
 ==========================================
             0.0000
 Net Total:  0.00000000


 Atom-Atom Population Matrix (off-diagonal elements not doubled)
 ===============================================================

     1 :     8.0000



 =============
 Dipole Moment  ***  (Debye)  ***
 =============
  
 Vector   :         0.00000000      0.00000000      0.00000000
 Magnitude:         0.00000000

 This molecular dipole moment is calculated with analytic integration



 =========================================
 Quadrupole Moment (Buckingham convention)  ***  (a.u.)  ***
 =========================================
  
      quad-xx        quad-xy        quad-xz        quad-yy        quad-yz        quad-zz
      0.00000000     0.00000000     0.00000000     0.00000000     0.00000000     0.00000000

 This molecular quadrupole moment is calculated with analytic integration



 ===============================================================================
 Electrostatic potential at the Nuclei due to valence electrons and other nuclei
 ===============================================================================
  
         Atom                  Potential
         ----                  ---------
     1)   O                  22.26490088
 
 
 ========================
 No memory problems found
 ========================
 
 Maximum number of active allocate calls:         476
 
 *******************************************************************************

                             A D F   E X I T
 NORMAL TERMINATION



 =================
 Timing Statistics
 =================
  
 Total Used :                     CPU=        0.22      System=        0.02     Elapsed=        0.24

 Calls  Section                     ( Mean, Percentage )
 ---------------------------------------------------------------------------------------------------
     3  ><      ................      0.00    0.25             0.00    0.00             0.00    0.23
     1  INIT    ................      0.01    3.85             0.00    0.00             0.01    3.72
     1  GEOMET  ................      0.02    9.54             0.01   50.35             0.03   12.32
     1  INPUTA  ................      0.00    0.54             0.00    0.00             0.00    0.50
     1  MAINSY  ................      0.00    2.12             0.00    0.00             0.00    1.97
     1  SYMFIT  ................      0.00    0.17             0.00    0.00             0.00    0.16
     1  CORORT  ................      0.00    0.11             0.00    0.00             0.00    0.10
     1  SYMORB  ................      0.00    0.39             0.00    0.00             0.00    0.36
     1  FITINT  ................      0.00    2.15             0.00    0.00             0.00    2.00
     1  CLSMAT  ................      0.00    0.12             0.00    0.00             0.00    0.11
     1  ORTHON  ................      0.00    0.58             0.00    0.00             0.00    0.54
     1  GENPT   ................      0.01    3.25             0.00    0.00             0.01    3.03
     1  PTBAS   ................      0.00    0.02             0.00   16.68             0.00    1.15
    12  FOCKY   ................      0.01   47.89             0.00   30.22             0.01   46.61
    12  FOCKTR  ................      0.00    1.50             0.00    0.00             0.00    1.39
    12  FOCKNM  ................      0.00    0.14             0.00    0.00             0.00    0.13
    12  SDIIS   ................      0.00    1.91             0.00    0.37             0.00    1.81
    12  EMERGE  ................      0.00   15.74             0.00    2.39             0.00   14.80
     1  COREPS  ................      0.00    1.47             0.00    0.00             0.00    1.36
     1  POPAN   ................      0.00    1.00             0.00    0.00             0.00    0.93
     1  DEBYE   ................      0.00    0.22             0.00    0.00             0.00    0.21
     1  QMPOT   ................      0.00    1.31             0.00    0.00             0.00    1.22
     1  EXIT PROCEDURE .........      0.01    5.73             0.00    0.00             0.01    5.33


 Currently Open Files (EXIT00)
 ====================

 Unit    Access Format  Status   Type       Ident (file)
 -------------------------------------------------------
   3      SEQ    FORM   TRANSP  NORMAL      LOGFILE
                                          ( logfile )


 Buffered I/O statistics
 =======================
 Memory available:                     67108864
 Number of records fitting in memory:     16131
 Input :   0.9% of                         6430  *4k bytes
 Output:   8.3% of                         2767  *4k bytes
 Records from serial files evicted:           0
                    others evicted:           0
 Hash table lookups:      25047 with          0 conflicts (  0.00%)

 ***************************************************************************************************
 (LOGFILE)
 <Jan01-2013> <00:00:00>  DIRAC 2013.01  RunTime: Jan01-2013 00:00:00  Nodes: 1  Procs: 1
 <Jan01-2013> <00:00:00>  NORMAL TERMINATION
 <Jan01-2013> <00:00:00>  END
 <Jan01-2013> <00:00:00>  ADF 2013.01  RunTime: Jan01-2013 00:00:00  Nodes: 1  Procs: 1
 <Jan01-2013> <00:00:00>  Hydrogen (QZ, all electron, 5S 2P 2D)
 <Jan01-2013> <00:00:00>  RunType   : CREATE
 <Jan01-2013> <00:00:00>  Net Charge: 0 (Nuclei minus Electrons)
 <Jan01-2013> <00:00:00>  Symmetry  : ATOM
  Coordinates
    Atom         X           Y           Z   (Angstrom)
    1.H         0.000000    0.000000    0.000000
 <Jan01-2013> <00:00:00>  >>>> CORORT
 <Jan01-2013> <00:00:00>  >>>> FITINT
 <Jan01-2013> <00:00:00>  >>>> CLSMAT
 <Jan01-2013> <00:00:00>  >>>> ORTHON
 <Jan01-2013> <00:00:00>  >>>> GENPT
 <Jan01-2013> <00:00:00>  Acc.Num.Int.=  10.000
 <Jan01-2013> <00:00:00>  Block Length=  44
 <Jan01-2013> <00:00:00>  >>>> PTBAS
 <Jan01-2013> <00:00:00>  >>>> CYCLE
 <Jan01-2013> <00:00:01>    1
 <Jan01-2013> <00:00:01>    2  ErrMat   0.03803841  MaxEl  0.03078708
 <Jan01-2013> <00:00:01>    3  ErrMat   0.00916622  MaxEl -0.00901560
 <Jan01-2013> <00:00:01>    4  ErrMat   0.00035667  MaxEl  0.00031421
 <Jan01-2013> <00:00:01>    5  ErrMat   0.00000962  MaxEl -0.00000892
 <Jan01-2013> <00:00:01>    6  ErrMat   0.00000013  MaxEl  0.00000008
 <Jan01-2013> <00:00:01>    7  ErrMat   0.00000000  MaxEl  0.00000000
 <Jan01-2013> <00:00:01>  SCF converged
 <Jan01-2013> <00:00:01>    8  ErrMat   0.00000000  MaxEl  0.00000000
 <Jan01-2013> <00:00:01>   Solutions with partially occupied orbitals may not be
 <Jan01-2013> <00:00:01>   lowest in energy. You might consider lowering the
 <Jan01-2013> <00:00:01>   symmetry in the input and explicitly specifying integer
 <Jan01-2013> <00:00:01>   occupations. In that case always check that you obtain
 <Jan01-2013> <00:00:01>   an aufbau solution.
 <Jan01-2013> <00:00:01>  >>>> POPAN
 <Jan01-2013> <00:00:01>  >>>> DEBYE
 <Jan01-2013> <00:00:01>  NORMAL TERMINATION
 <Jan01-2013> <00:00:01>  END
 <Jan01-2013> <00:00:01>  DIRAC 2013.01  RunTime: Jan01-2013 00:00:01  Nodes: 1  Procs: 1
 <Jan01-2013> <00:00:01>  NORMAL TERMINATION
 <Jan01-2013> <00:00:01>  END
 <Jan01-2013> <00:00:01>  ADF 2013.01  RunTime: Jan01-2013 00:00:01  Nodes: 1  Procs: 1
 <Jan01-2013> <00:00:01>  Oxygen (QZ, all electron, 8S 4P 2D 2F)
 <Jan01-2013> <00:00:01>  RunType   : CREATE
 <Jan01-2013> <00:00:01>  Net Charge: 0 (Nuclei minus Electrons)
 <Jan01-2013> <00:00:01>  Symmetry  : ATOM
  Coordinates
    Atom         X           Y           Z   (Angstrom)
    1.O         0.000000    0.000000    0.000000
 <Jan01-2013> <00:00:01>  >>>> CORORT
 <Jan01-2013> <00:00:01>  >>>> FITINT
 <Jan01-2013> <00:00:01>  >>>> CLSMAT
 <Jan01-2013> <00:00:01>  >>>> ORTHON
 <Jan01-2013> <00:00:01>  >>>> GENPT
 <Jan01-2013> <00:00:01>  Acc.Num.Int.=  10.000
 <Jan01-2013> <00:00:01>  Block Length=  61
 <Jan01-2013> <00:00:01>  >>>> PTBAS
 <Jan01-2013> <00:00:01>  >>>> CYCLE
 <Jan01-2013> <00:00:01>    1
 <Jan01-2013> <00:00:01>    2  ErrMat   9.74921119  MaxEl  4.13901188
 <Jan01-2013> <00:00:01>    3  ErrMat   3.70162577  MaxEl -2.91656473
 <Jan01-2013> <00:00:01>    4  ErrMat   2.94969141  MaxEl -1.91814780
 <Jan01-2013> <00:00:01>    5  ErrMat   1.88970506  MaxEl -1.07111526
 <Jan01-2013> <00:00:01>    6  ErrMat   0.04645269  MaxEl -0.01876708
 <Jan01-2013> <00:00:01>    7  ErrMat   0.02377734  MaxEl  0.01063637
 <Jan01-2013> <00:00:01>    8  ErrMat   0.00251040  MaxEl -0.00114123
 <Jan01-2013> <00:00:01>    9  ErrMat   0.00000968  MaxEl -0.00000432
 <Jan01-2013> <00:00:01>   10  ErrMat   0.00000018  MaxEl  0.00000007
 <Jan01-2013> <00:00:01>   11  ErrMat   0.00000000  MaxEl  0.00000000
 <Jan01-2013> <00:00:01>  SCF converged
 <Jan01-2013> <00:00:01>   12  ErrMat   0.00000000  MaxEl  0.00000000
 <Jan01-2013> <00:00:01>   Solutions with partially occupied orbitals may not be
 <Jan01-2013> <00:00:01>   lowest in energy. You might consider lowering the
 <Jan01-2013> <00:00:01>   symmetry in the input and explicitly specifying integer
 <Jan01-2013> <00:00:01>   occupations. In that case always check that you obtain
 <Jan01-2013> <00:00:01>   an aufbau solution.
 <Jan01-2013> <00:00:01>  >>>> POPAN
 <Jan01-2013> <00:00:01>  >>>> DEBYE
 <Jan01-2013> <00:00:01>  NORMAL TERMINATION
 <Jan01-2013> <00:00:01>  END
Platform-MPI licensed for SCM.


 Parallel Execution: Process Information
 ==============================================================================
 Rank   Node Name                              NodeID   MyNodeRank  NodeMaster
    0   parca                                     0          0          0
    1   parca                                     0          1         -1
    2   parca                                     0          2         -1
    3   parca                                     0          3         -1
 ==============================================================================


(INPUT FILE)

 TITLE Annealing ASCEC

 Charge {1,0}
 ATOMS
   H    -2.17487100     0.56649500      0.00653800
   H    -3.13536800     1.77171500      -0.52290500
   O    -3.00576200     0.80579000      -0.52217600
   H    -3.95907000     0.22239300      -0.29916500
 END

 symmetry auto

 RELATIVISTIC Spin-Orbit ZORA

 XC
 GGA PBE
 END

 Geometry
  Frequencies
 end

 SCF
 CONVERGE 1e-6 1e-6
 ITERATION 200
 END

Fragments
H t21.H
O t21.O
End
end input

 *******************************************************************************
 *                                                                             *
 *  -------------------------------------                                      *
 *   Amsterdam Density Functional  (ADF)         2013.01   April 2, 2013       *
 *  -------------------------------------                                      *
 *                                               Build 201304112215            *
 *                                                                             *
 *                                                                             *
 *                              =================                              *
 *                              |               |                              *
 *                              |     A D F     |                              *
 *                              |               |                              *
 *                              =================                              *
 *                                                                             *
 *                                                                             *
 *   Online information and documentation:  http://www.scm.com                 *
 *   E-mail:  support@scm.com   info@scm.com                                   *
 *                                                                             *
 *   Scientific publications using ADF results must be properly referenced     *
 *   See the User Manuals (or the web site) for recommended citations          *
 *   The terms and conditions of the End User License Agreement apply to       *
 *   the use of ADF, http://www.scm.com/Sales/LicAgreement.html                *
 *                                                                             *
 ********************  x86_64_linux_intel / platform_mpi  **********************
 
 Licensed to: Prof. Cacier Hadad / University of Antioquia / Medellin / COLOMBIA
 SCM User ID: u15319
  
 ADF 2013.01  RunTime: Jan01-2013 00:00:02  Nodes: 1  Procs: 4

 Temporary files are created in /home/scratch/adf/kid_0.oGmLT8


Communication costs MPI_COMM_WORLD:      0.607 usec per message,   0.0043 usec per 8-byte item
Communication costs for intra-node:      0.606 usec per message,   0.0044 usec per 8-byte item

 Annealing ASCEC



 ===========================
 A T T A C H E D   F I L E S
 ===========================
  



 ===============================
 M O D E L   P A R A M E T E R S
 ===============================
  
 DENSITY FUNCTIONAL POTENTIAL (scf)
    LDA:                               PW92                                    == Not Default ==
    Gradient Corrections:              PBEc PBEx                               == Not Default ==

 SPIN  (restricted / unrestr.)
    Molecule:                          Restricted                               
    Fragments:                         Restricted                               

 OTHER ASPECTS
    Relativistic Corrections:          Spin-Orbit (ZORA,SAPA)                  == Not Default ==

    Nuclear Charge Density Model:      Point Charge Nuclei                                                                                                                                                                                     
    Core Treatment:                    Frozen Orbital(s)                        

    Hyperfine or Zeeman Interaction:   ---                                      


 Fragment File(s)
 ----------------
 H:
         file : t21.H
         jobid: ADF 2013.01  RunTime: Jan01-2013 00:00:00  Nodes: 1  Procs: 1
         title: Hydrogen (QZ, all electron, 5S 2P 2D)
 O:
         file : t21.O
         jobid: ADF 2013.01  RunTime: Jan01-2013 00:00:01  Nodes: 1  Procs: 1
         title: Oxygen (QZ, all electron, 8S 4P 2D 2F)



                                        ***********************************
                                        *  R U N   T Y P E : FREQUENCIES  *
                                        ***********************************
  



 ===============
 G E O M E T R Y  ***  3D  Molecule  ***
 ===============
  

 ATOMS
 =====                            X Y Z                    CHARGE
                                (Angstrom)             Nucl     +Core       At.Mass
                       --------------------------    ----------------       -------
    1  H              -2.1749    0.5665    0.0065      1.00      1.00        1.0078
    2  H              -3.1354    1.7717   -0.5229      1.00      1.00        1.0078
    3  O              -3.0058    0.8058   -0.5222      8.00      8.00       15.9949
    4  H              -3.9591    0.2224   -0.2992      1.00      1.00        1.0078


 FRAGMENTS
 =========                                     Atoms in this Fragment     Cart. coord.s (Angstrom)
                                               -------------------------------------------------------
    1  H                                                 1  H           -2.1749    0.5665    0.0065
    2  H                                                 2  H           -3.1354    1.7717   -0.5229
    3  H                                                 4  H           -3.9591    0.2224   -0.2992
    4  O                                                 3  O           -3.0058    0.8058   -0.5222


 Interatomic Distance Matrix (Angstrom)
 --------------------------------------

   1)     0.000
   2)     1.630   0.000
   3)     1.013   0.975   0.000
   4)     1.843   1.769   1.140   0.000

 Min. Distance =    0.9746
 Max. Distance =    1.8426



 =====================================
 S Y M M E T R Y ,   E L E C T R O N S
 =====================================
  
 Symmetry: NOSYM

 Double Group Irreducible Representations (spinor symmetry)
 -----------------------------------------------------------
 A1/2

 *** In a FREQUENCIES run the point group symmetry is used only in the construction of the Force Matrix.
     Due to possibly symmetry-breaking displacements, the SCF calculations run in 'NOSYM', with only one
     irrep and one subspecies: A.
 (The current implementation does not use C(LIN),D(LIN) symmetries efficiently in Frequencies-runs.
 If specified they will internally be reset to NOSYM)


 Configuration of Valence Electrons
 ==================================
 ( determined in the SCF procedure )

 Total:   10

 Net Charge: 1 (Nuclei minus Electrons)

 Aufbau principle for MO occupations will be applied through SCF cycle no.      30
 Thereafter, the program will assign electrons to MOs that are spatially
[...]
 <Jan01-2013> <00:00:31>  >>>> AMETS
 <Jan01-2013> <00:00:31>  >>>> ENGRAD
  Coordinates in Frequency Displacement 10
    Atom         X           Y           Z   (Angstrom)
    1.H        -2.174871    0.566495    0.006538
    2.H        -3.135368    1.781715   -0.522905
    3.O        -3.005762    0.805790   -0.522176
    4.H        -3.959070    0.222393   -0.299165
 <Jan01-2013> <00:00:32>  >>>> CORORT
 <Jan01-2013> <00:00:32>  >>>> FITINT
 <Jan01-2013> <00:00:32>  >>>> CLSMAT
 <Jan01-2013> <00:00:32>  >>>> ORTHON
 <Jan01-2013> <00:00:32>  >>>> GENPT
 <Jan01-2013> <00:00:32>  Block Length= 128
 <Jan01-2013> <00:00:32>  >>>> PTBAS
 <Jan01-2013> <00:00:32>  >>>> CYCLE
 <Jan01-2013> <00:00:32>    1
 <Jan01-2013> <00:00:33>    2  ErrMat   0.00037490  MaxEl  0.00010268
 <Jan01-2013> <00:00:33>    3  ErrMat   0.00016599  MaxEl  0.00004914
 <Jan01-2013> <00:00:33>    4  ErrMat   0.00001777  MaxEl -0.00000398
 <Jan01-2013> <00:00:33>    5  ErrMat   0.00000379  MaxEl -0.00000088
 <Jan01-2013> <00:00:33>  SCF converged
 <Jan01-2013> <00:00:33>    6  ErrMat   0.00000040  MaxEl -0.00000013
 <Jan01-2013> <00:00:33>  >>>> TOTEN
 <Jan01-2013> <00:00:34>  >>>> POPAN
 <Jan01-2013> <00:00:34>  >>>> DEBYE
 <Jan01-2013> <00:00:34>  >>>> AMETS
 <Jan01-2013> <00:00:34>  >>>> ENGRAD
  Coordinates in Frequency Displacement 11
    Atom         X           Y           Z   (Angstrom)
    1.H        -2.174871    0.566495    0.006538
    2.H        -3.135368    1.771715   -0.532905
    3.O        -3.005762    0.805790   -0.522176
    4.H        -3.959070    0.222393   -0.299165
 <Jan01-2013> <00:00:35>  >>>> CORORT
 <Jan01-2013> <00:00:35>  >>>> FITINT
 <Jan01-2013> <00:00:35>  >>>> CLSMAT
 <Jan01-2013> <00:00:35>  >>>> ORTHON
 <Jan01-2013> <00:00:35>  >>>> GENPT
 <Jan01-2013> <00:00:35>  Block Length= 128
 <Jan01-2013> <00:00:35>  >>>> PTBAS
 <Jan01-2013> <00:00:35>  >>>> CYCLE
 <Jan01-2013> <00:00:35>    1
 <Jan01-2013> <00:00:35>    2  ErrMat   0.01175041  MaxEl -0.00388408
 <Jan01-2013> <00:00:36>    3  ErrMat   0.00804367  MaxEl -0.00263656
 <Jan01-2013> <00:00:36>    4  ErrMat   0.00253434  MaxEl -0.00057014
 <Jan01-2013> <00:00:36>    5  ErrMat   0.00033716  MaxEl -0.00008000
 <Jan01-2013> <00:00:36>    6  ErrMat   0.00002518  MaxEl  0.00000559
 <Jan01-2013> <00:00:36>    7  ErrMat   0.00000479  MaxEl -0.00000120
 <Jan01-2013> <00:00:36>    8  ErrMat   0.00000047  MaxEl -0.00000010
 <Jan01-2013> <00:00:36>  SCF converged
 <Jan01-2013> <00:00:36>    9  ErrMat   0.00000008  MaxEl -0.00000002
 <Jan01-2013> <00:00:36>  >>>> TOTEN
 <Jan01-2013> <00:00:37>  >>>> POPAN
 <Jan01-2013> <00:00:37>  >>>> DEBYE
 <Jan01-2013> <00:00:37>  >>>> AMETS
 <Jan01-2013> <00:00:37>  >>>> ENGRAD
  Coordinates in Frequency Displacement 12
    Atom         X           Y           Z   (Angstrom)
    1.H        -2.174871    0.566495    0.006538
    2.H        -3.135368    1.771715   -0.512905
    3.O        -3.005762    0.805790   -0.522176
    4.H        -3.959070    0.222393   -0.299165
 <Jan01-2013> <00:00:38>  >>>> CORORT
 <Jan01-2013> <00:00:38>  >>>> FITINT
 <Jan01-2013> <00:00:38>  >>>> CLSMAT
 <Jan01-2013> <00:00:38>  >>>> ORTHON
 <Jan01-2013> <00:00:38>  >>>> GENPT
 <Jan01-2013> <00:00:38>  Block Length= 128
 <Jan01-2013> <00:00:38>  >>>> PTBAS
 <Jan01-2013> <00:00:38>  >>>> CYCLE
 <Jan01-2013> <00:00:38>    1
 <Jan01-2013> <00:00:39>    2  ErrMat   0.00003695  MaxEl -0.00000948
 <Jan01-2013> <00:00:39>    3  ErrMat   0.00002249  MaxEl -0.00000525
 <Jan01-2013> <00:00:39>    4  ErrMat   0.00001257  MaxEl  0.00000282
 <Jan01-2013> <00:00:39>    5  ErrMat   0.00000088  MaxEl  0.00000019
 <Jan01-2013> <00:00:39>  SCF converged
 <Jan01-2013> <00:00:39>    6  ErrMat   0.00000013  MaxEl  0.00000002
 <Jan01-2013> <00:00:39>  >>>> TOTEN
 <Jan01-2013> <00:00:40>  >>>> POPAN
 <Jan01-2013> <00:00:40>  >>>> DEBYE
 <Jan01-2013> <00:00:40>  >>>> AMETS
 <Jan01-2013> <00:00:40>  >>>> ENGRAD
  Coordinates in Frequency Displacement 13
    Atom         X           Y           Z   (Angstrom)
    1.H        -2.174871    0.566495    0.006538
    2.H        -3.135368    1.771715   -0.522905
    3.O        -3.015762    0.805790   -0.522176
    4.H        -3.959070    0.222393   -0.299165
 <Jan01-2013> <00:00:41>  >>>> CORORT
 <Jan01-2013> <00:00:41>  >>>> FITINT
 <Jan01-2013> <00:00:41>  >>>> CLSMAT
 <Jan01-2013> <00:00:41>  >>>> ORTHON
 <Jan01-2013> <00:00:41>  >>>> GENPT
 <Jan01-2013> <00:00:41>  Block Length= 128
 <Jan01-2013> <00:00:41>  >>>> PTBAS
 <Jan01-2013> <00:00:41>  >>>> CYCLE
 <Jan01-2013> <00:00:41>    1
 <Jan01-2013> <00:00:41>    2  ErrMat   0.02944335  MaxEl  0.00752967
 <Jan01-2013> <00:00:41>    3  ErrMat   0.01958327  MaxEl  0.00494702
 <Jan01-2013> <00:00:42>    4  ErrMat   0.00330985  MaxEl -0.00072971
 <Jan01-2013> <00:00:42>    5  ErrMat   0.00053613  MaxEl -0.00013726
 <Jan01-2013> <00:00:42>    6  ErrMat   0.00006218  MaxEl -0.00001339
 <Jan01-2013> <00:00:42>    7  ErrMat   0.00001084  MaxEl  0.00000273
 <Jan01-2013> <00:00:42>    8  ErrMat   0.00000129  MaxEl  0.00000035
 <Jan01-2013> <00:00:42>  SCF converged
 <Jan01-2013> <00:00:42>    9  ErrMat   0.00000015  MaxEl -0.00000004
 <Jan01-2013> <00:00:42>  >>>> TOTEN
 <Jan01-2013> <00:00:43>  >>>> POPAN
 <Jan01-2013> <00:00:43>  >>>> DEBYE
 <Jan01-2013> <00:00:43>  >>>> AMETS
 <Jan01-2013> <00:00:43>  >>>> ENGRAD
  Coordinates in Frequency Displacement 14
    Atom         X           Y           Z   (Angstrom)
    1.H        -2.174871    0.566495    0.006538
    2.H        -3.135368    1.771715   -0.522905
    3.O        -2.995762    0.805790   -0.522176
    4.H        -3.959070    0.222393   -0.299165
 <Jan01-2013> <00:00:44>  >>>> CORORT
 <Jan01-2013> <00:00:44>  >>>> FITINT
 <Jan01-2013> <00:00:44>  >>>> CLSMAT
 <Jan01-2013> <00:00:44>  >>>> ORTHON
 <Jan01-2013> <00:00:44>  >>>> GENPT
 <Jan01-2013> <00:00:44>  Block Length= 128
 <Jan01-2013> <00:00:44>  >>>> PTBAS
 <Jan01-2013> <00:00:44>  >>>> CYCLE
 <Jan01-2013> <00:00:44>    1
 <Jan01-2013> <00:00:44>    2  ErrMat   0.00101601  MaxEl -0.00023203
 <Jan01-2013> <00:00:45>    3  ErrMat   0.00043253  MaxEl -0.00010124
 <Jan01-2013> <00:00:45>    4  ErrMat   0.00004974  MaxEl -0.00001096
 <Jan01-2013> <00:00:45>    5  ErrMat   0.00000929  MaxEl -0.00000177
 <Jan01-2013> <00:00:45>    6  ErrMat   0.00000098  MaxEl -0.00000022
 <Jan01-2013> <00:00:45>  SCF converged
 <Jan01-2013> <00:00:45>    7  ErrMat   0.00000012  MaxEl -0.00000002
 <Jan01-2013> <00:00:45>  >>>> TOTEN
 <Jan01-2013> <00:00:46>  >>>> POPAN
 <Jan01-2013> <00:00:46>  >>>> DEBYE
 <Jan01-2013> <00:00:46>  >>>> AMETS
 <Jan01-2013> <00:00:46>  >>>> ENGRAD
  Coordinates in Frequency Displacement 15
    Atom         X           Y           Z   (Angstrom)
    1.H        -2.174871    0.566495    0.006538
    2.H        -3.135368    1.771715   -0.522905
    3.O        -3.005762    0.795790   -0.522176
    4.H        -3.959070    0.222393   -0.299165
 <Jan01-2013> <00:00:46>  >>>> CORORT
 <Jan01-2013> <00:00:46>  >>>> FITINT
 <Jan01-2013> <00:00:47>  >>>> CLSMAT
 <Jan01-2013> <00:00:47>  >>>> ORTHON
 <Jan01-2013> <00:00:47>  >>>> GENPT
 <Jan01-2013> <00:00:47>  Block Length= 128
 <Jan01-2013> <00:00:47>  >>>> PTBAS
 <Jan01-2013> <00:00:47>  >>>> CYCLE
 <Jan01-2013> <00:00:47>    1
 <Jan01-2013> <00:00:47>    2  ErrMat   0.03000069  MaxEl -0.00746188
 <Jan01-2013> <00:00:47>    3  ErrMat   0.01971127  MaxEl  0.00486769
 <Jan01-2013> <00:00:47>    4  ErrMat   0.00847375  MaxEl  0.00193228
 <Jan01-2013> <00:00:48>    5  ErrMat   0.00050819  MaxEl  0.00016338
 <Jan01-2013> <00:00:48>    6  ErrMat   0.00004596  MaxEl -0.00001167
 <Jan01-2013> <00:00:48>    7  ErrMat   0.00001408  MaxEl  0.00000378
 <Jan01-2013> <00:00:48>    8  ErrMat   0.00000164  MaxEl  0.00000041
 <Jan01-2013> <00:00:48>  SCF converged
 <Jan01-2013> <00:00:48>    9  ErrMat   0.00000011  MaxEl  0.00000004
 <Jan01-2013> <00:00:48>  >>>> TOTEN
 <Jan01-2013> <00:00:49>  >>>> POPAN
 <Jan01-2013> <00:00:49>  >>>> DEBYE
 <Jan01-2013> <00:00:49>  >>>> AMETS
 <Jan01-2013> <00:00:49>  >>>> ENGRAD
  Coordinates in Frequency Displacement 16
    Atom         X           Y           Z   (Angstrom)
    1.H        -2.174871    0.566495    0.006538
    2.H        -3.135368    1.771715   -0.522905
    3.O        -3.005762    0.815790   -0.522176
    4.H        -3.959070    0.222393   -0.299165
 <Jan01-2013> <00:00:50>  >>>> CORORT
 <Jan01-2013> <00:00:50>  >>>> FITINT
 <Jan01-2013> <00:00:50>  >>>> CLSMAT
 <Jan01-2013> <00:00:50>  >>>> ORTHON
 <Jan01-2013> <00:00:50>  >>>> GENPT
 <Jan01-2013> <00:00:50>  Block Length= 128
 <Jan01-2013> <00:00:50>  >>>> PTBAS
 <Jan01-2013> <00:00:50>  >>>> CYCLE
 <Jan01-2013> <00:00:50>    1
 <Jan01-2013> <00:00:50>    2  ErrMat   0.00064385  MaxEl -0.00015376
 <Jan01-2013> <00:00:51>    3  ErrMat   0.00029875  MaxEl -0.00007165
 <Jan01-2013> <00:00:51>    4  ErrMat   0.00006787  MaxEl -0.00001654
 <Jan01-2013> <00:00:51>    5  ErrMat   0.00000517  MaxEl -0.00000126
 <Jan01-2013> <00:00:51>    6  ErrMat   0.00000071  MaxEl -0.00000015
 <Jan01-2013> <00:00:51>  SCF converged
 <Jan01-2013> <00:00:51>    7  ErrMat   0.00000012  MaxEl  0.00000003
 <Jan01-2013> <00:00:51>  >>>> TOTEN
 <Jan01-2013> <00:00:52>  >>>> POPAN
 <Jan01-2013> <00:00:52>  >>>> DEBYE
 <Jan01-2013> <00:00:52>  >>>> AMETS
 <Jan01-2013> <00:00:52>  >>>> ENGRAD
  Coordinates in Frequency Displacement 17
    Atom         X           Y           Z   (Angstrom)
    1.H        -2.174871    0.566495    0.006538
    2.H        -3.135368    1.771715   -0.522905
    3.O        -3.005762    0.805790   -0.532176
    4.H        -3.959070    0.222393   -0.299165
 <Jan01-2013> <00:00:53>  >>>> CORORT
 <Jan01-2013> <00:00:53>  >>>> FITINT
 <Jan01-2013> <00:00:53>  >>>> CLSMAT
 <Jan01-2013> <00:00:53>  >>>> ORTHON
 <Jan01-2013> <00:00:53>  >>>> GENPT
 <Jan01-2013> <00:00:53>  Block Length= 128
 <Jan01-2013> <00:00:53>  >>>> PTBAS
 <Jan01-2013> <00:00:53>  >>>> CYCLE
 <Jan01-2013> <00:00:54>    1
 <Jan01-2013> <00:00:54>    2  ErrMat   0.03322158  MaxEl  0.00960895
 <Jan01-2013> <00:00:54>    3  ErrMat   0.02068605  MaxEl  0.00649917
 <Jan01-2013> <00:00:54>    4  ErrMat   0.01251462  MaxEl -0.00270970
 <Jan01-2013> <00:00:54>    5  ErrMat   0.00052198  MaxEl  0.00011506
 <Jan01-2013> <00:00:54>    6  ErrMat   0.00005788  MaxEl -0.00001510
 <Jan01-2013> <00:00:54>    7  ErrMat   0.00001096  MaxEl  0.00000275
 <Jan01-2013> <00:00:54>    8  ErrMat   0.00000095  MaxEl  0.00000021
 <Jan01-2013> <00:00:55>  SCF converged
 <Jan01-2013> <00:00:55>    9  ErrMat   0.00000017  MaxEl  0.00000004
 <Jan01-2013> <00:00:55>  >>>> TOTEN
 <Jan01-2013> <00:00:55>  >>>> POPAN
 <Jan01-2013> <00:00:55>  >>>> DEBYE
 <Jan01-2013> <00:00:55>  >>>> AMETS
 <Jan01-2013> <00:00:55>  >>>> ENGRAD
  Coordinates in Frequency Displacement 18
    Atom         X           Y           Z   (Angstrom)
    1.H        -2.174871    0.566495    0.006538
    2.H        -3.135368    1.771715   -0.522905
    3.O        -3.005762    0.805790   -0.512176
    4.H        -3.959070    0.222393   -0.299165
 <Jan01-2013> <00:00:56>  >>>> CORORT
 <Jan01-2013> <00:00:56>  >>>> FITINT
 <Jan01-2013> <00:00:56>  >>>> CLSMAT
 <Jan01-2013> <00:00:56>  >>>> ORTHON
 <Jan01-2013> <00:00:56>  >>>> GENPT
 <Jan01-2013> <00:00:56>  Block Length= 128
 <Jan01-2013> <00:00:56>  >>>> PTBAS
 <Jan01-2013> <00:00:57>  >>>> CYCLE
 <Jan01-2013> <00:00:57>    1
 <Jan01-2013> <00:00:57>    2  ErrMat   0.00014384  MaxEl -0.00003962
 <Jan01-2013> <00:00:57>    3  ErrMat   0.00008954  MaxEl -0.00002712
 <Jan01-2013> <00:00:57>    4  ErrMat   0.00005301  MaxEl  0.00001149
 <Jan01-2013> <00:00:57>    5  ErrMat   0.00000194  MaxEl  0.00000035
 <Jan01-2013> <00:00:57>  SCF converged
 <Jan01-2013> <00:00:57>    6  ErrMat   0.00000022  MaxEl  0.00000005
 <Jan01-2013> <00:00:58>  >>>> TOTEN
 <Jan01-2013> <00:00:58>  >>>> POPAN
 <Jan01-2013> <00:00:58>  >>>> DEBYE
 <Jan01-2013> <00:00:58>  >>>> AMETS
 <Jan01-2013> <00:00:58>  >>>> ENGRAD
  Coordinates in Frequency Displacement 19
    Atom         X           Y           Z   (Angstrom)
    1.H        -2.174871    0.566495    0.006538
    2.H        -3.135368    1.771715   -0.522905
    3.O        -3.005762    0.805790   -0.522176
    4.H        -3.969070    0.222393   -0.299165
 <Jan01-2013> <00:00:59>  >>>> CORORT
 <Jan01-2013> <00:00:59>  >>>> FITINT
 <Jan01-2013> <00:00:59>  >>>> CLSMAT
 <Jan01-2013> <00:00:59>  >>>> ORTHON
 <Jan01-2013> <00:00:59>  >>>> GENPT
 <Jan01-2013> <00:00:59>  Block Length= 128
 <Jan01-2013> <00:00:59>  >>>> PTBAS
 <Jan01-2013> <00:01:00>  >>>> CYCLE
 <Jan01-2013> <00:01:00>    1
 <Jan01-2013> <00:01:00>    2  ErrMat   0.01510041  MaxEl  0.00393925
 <Jan01-2013> <00:01:00>    3  ErrMat   0.00732144  MaxEl  0.00192777
 <Jan01-2013> <00:01:00>    4  ErrMat   0.00228409  MaxEl  0.00047484
 <Jan01-2013> <00:01:00>    5  ErrMat   0.00024702  MaxEl -0.00004786
 <Jan01-2013> <00:01:00>    6  ErrMat   0.00001802  MaxEl -0.00000496
 <Jan01-2013> <00:01:00>    7  ErrMat   0.00000311  MaxEl -0.00000070
 <Jan01-2013> <00:01:00>  SCF converged
 <Jan01-2013> <00:01:01>    8  ErrMat   0.00000066  MaxEl  0.00000015
 <Jan01-2013> <00:01:01>  >>>> TOTEN
 <Jan01-2013> <00:01:01>  >>>> POPAN
 <Jan01-2013> <00:01:01>  >>>> DEBYE
 <Jan01-2013> <00:01:01>  >>>> AMETS
 <Jan01-2013> <00:01:01>  >>>> ENGRAD
  Coordinates in Frequency Displacement 20
    Atom         X           Y           Z   (Angstrom)
    1.H        -2.174871    0.566495    0.006538
    2.H        -3.135368    1.771715   -0.522905
    3.O        -3.005762    0.805790   -0.522176
    4.H        -3.949070    0.222393   -0.299165
 <Jan01-2013> <00:01:02>  >>>> CORORT
 <Jan01-2013> <00:01:02>  >>>> FITINT
 <Jan01-2013> <00:01:02>  >>>> CLSMAT
 <Jan01-2013> <00:01:02>  >>>> ORTHON
 <Jan01-2013> <00:01:02>  >>>> GENPT
 <Jan01-2013> <00:01:02>  Block Length= 128
 <Jan01-2013> <00:01:02>  >>>> PTBAS
 <Jan01-2013> <00:01:03>  >>>> CYCLE
 <Jan01-2013> <00:01:03>    1
 <Jan01-2013> <00:01:03>    2  ErrMat   0.00070368  MaxEl -0.00017269
 <Jan01-2013> <00:01:03>    3  ErrMat   0.00033149  MaxEl -0.00008208
 <Jan01-2013> <00:01:03>    4  ErrMat   0.00008958  MaxEl -0.00001956
 <Jan01-2013> <00:01:03>    5  ErrMat   0.00000960  MaxEl  0.00000191
 <Jan01-2013> <00:01:03>    6  ErrMat   0.00000075  MaxEl  0.00000020
 <Jan01-2013> <00:01:03>  SCF converged
 <Jan01-2013> <00:01:04>    7  ErrMat   0.00000013  MaxEl  0.00000003
 <Jan01-2013> <00:01:04>  >>>> TOTEN
 <Jan01-2013> <00:01:04>  >>>> POPAN
 <Jan01-2013> <00:01:04>  >>>> DEBYE
 <Jan01-2013> <00:01:04>  >>>> AMETS
 <Jan01-2013> <00:01:04>  >>>> ENGRAD
  Coordinates in Frequency Displacement 21
    Atom         X           Y           Z   (Angstrom)
    1.H        -2.174871    0.566495    0.006538
    2.H        -3.135368    1.771715   -0.522905
    3.O        -3.005762    0.805790   -0.522176
    4.H        -3.959070    0.212393   -0.299165
 <Jan01-2013> <00:01:05>  >>>> CORORT
 <Jan01-2013> <00:01:05>  >>>> FITINT
 <Jan01-2013> <00:01:05>  >>>> CLSMAT
 <Jan01-2013> <00:01:05>  >>>> ORTHON
 <Jan01-2013> <00:01:05>  >>>> GENPT
 <Jan01-2013> <00:01:05>  Block Length= 128
 <Jan01-2013> <00:01:05>  >>>> PTBAS
 <Jan01-2013> <00:01:06>  >>>> CYCLE
 <Jan01-2013> <00:01:06>    1
 <Jan01-2013> <00:01:06>    2  ErrMat   0.01101631  MaxEl  0.00292124
 <Jan01-2013> <00:01:06>    3  ErrMat   0.00619585  MaxEl  0.00155087
 <Jan01-2013> <00:01:06>    4  ErrMat   0.00309989  MaxEl -0.00085937
 <Jan01-2013> <00:01:07>    5  ErrMat   0.00015861  MaxEl -0.00003034
 <Jan01-2013> <00:01:07>    6  ErrMat   0.00001960  MaxEl  0.00000549
 <Jan01-2013> <00:01:07>    7  ErrMat   0.00000307  MaxEl -0.00000078
 <Jan01-2013> <00:01:07>  SCF converged
 <Jan01-2013> <00:01:07>    8  ErrMat   0.00000061  MaxEl  0.00000012
 <Jan01-2013> <00:01:07>  >>>> TOTEN
 <Jan01-2013> <00:01:08>  >>>> POPAN
 <Jan01-2013> <00:01:08>  >>>> DEBYE
 <Jan01-2013> <00:01:08>  >>>> AMETS
 <Jan01-2013> <00:01:08>  >>>> ENGRAD
  Coordinates in Frequency Displacement 22
    Atom         X           Y           Z   (Angstrom)
    1.H        -2.174871    0.566495    0.006538
    2.H        -3.135368    1.771715   -0.522905
    3.O        -3.005762    0.805790   -0.522176
    4.H        -3.959070    0.232393   -0.299165
 <Jan01-2013> <00:01:09>  >>>> CORORT
 <Jan01-2013> <00:01:09>  >>>> FITINT
 <Jan01-2013> <00:01:09>  >>>> CLSMAT
 <Jan01-2013> <00:01:09>  >>>> ORTHON
 <Jan01-2013> <00:01:09>  >>>> GENPT
 <Jan01-2013> <00:01:09>  Block Length= 128
 <Jan01-2013> <00:01:09>  >>>> PTBAS
 <Jan01-2013> <00:01:09>  >>>> CYCLE
 <Jan01-2013> <00:01:09>    1
 <Jan01-2013> <00:01:09>    2  ErrMat   0.00030503  MaxEl -0.00007456
 <Jan01-2013> <00:01:10>    3  ErrMat   0.00017122  MaxEl -0.00003867
 <Jan01-2013> <00:01:10>    4  ErrMat   0.00008503  MaxEl  0.00002343
 <Jan01-2013> <00:01:10>    5  ErrMat   0.00000355  MaxEl  0.00000068
 <Jan01-2013> <00:01:10>  SCF converged
 <Jan01-2013> <00:01:10>    6  ErrMat   0.00000045  MaxEl -0.00000012
 <Jan01-2013> <00:01:10>  >>>> TOTEN
 <Jan01-2013> <00:01:11>  >>>> POPAN
 <Jan01-2013> <00:01:11>  >>>> DEBYE
 <Jan01-2013> <00:01:11>  >>>> AMETS
 <Jan01-2013> <00:01:11>  >>>> ENGRAD
  Coordinates in Frequency Displacement 23
    Atom         X           Y           Z   (Angstrom)
    1.H        -2.174871    0.566495    0.006538
    2.H        -3.135368    1.771715   -0.522905
    3.O        -3.005762    0.805790   -0.522176
    4.H        -3.959070    0.222393   -0.309165
 <Jan01-2013> <00:01:11>  >>>> CORORT
 <Jan01-2013> <00:01:11>  >>>> FITINT
 <Jan01-2013> <00:01:11>  >>>> CLSMAT
 <Jan01-2013> <00:01:12>  >>>> ORTHON
 <Jan01-2013> <00:01:12>  >>>> GENPT
 <Jan01-2013> <00:01:12>  Block Length= 128
 <Jan01-2013> <00:01:12>  >>>> PTBAS
 <Jan01-2013> <00:01:12>  >>>> CYCLE
 <Jan01-2013> <00:01:12>    1
 <Jan01-2013> <00:01:12>    2  ErrMat   0.00856365  MaxEl -0.00254384
 <Jan01-2013> <00:01:12>    3  ErrMat   0.00553477  MaxEl -0.00172068
 <Jan01-2013> <00:01:13>    4  ErrMat   0.00342547  MaxEl  0.00075978
 <Jan01-2013> <00:01:13>    5  ErrMat   0.00015837  MaxEl  0.00003744
 <Jan01-2013> <00:01:13>    6  ErrMat   0.00001844  MaxEl -0.00000410
 <Jan01-2013> <00:01:13>    7  ErrMat   0.00000467  MaxEl -0.00000126
 <Jan01-2013> <00:01:13>    8  ErrMat   0.00000045  MaxEl  0.00000010
 <Jan01-2013> <00:01:13>  SCF converged
 <Jan01-2013> <00:01:13>    9  ErrMat   0.00000005  MaxEl  0.00000001
 <Jan01-2013> <00:01:13>  >>>> TOTEN
 <Jan01-2013> <00:01:14>  >>>> POPAN
 <Jan01-2013> <00:01:14>  >>>> DEBYE
 <Jan01-2013> <00:01:14>  >>>> AMETS
 <Jan01-2013> <00:01:14>  >>>> ENGRAD
  Coordinates in Frequency Displacement 24
    Atom         X           Y           Z   (Angstrom)
    1.H        -2.174871    0.566495    0.006538
    2.H        -3.135368    1.771715   -0.522905
    3.O        -3.005762    0.805790   -0.522176
    4.H        -3.959070    0.222393   -0.289165
 <Jan01-2013> <00:01:15>  >>>> CORORT
 <Jan01-2013> <00:01:15>  >>>> FITINT
 <Jan01-2013> <00:01:15>  >>>> CLSMAT
 <Jan01-2013> <00:01:15>  >>>> ORTHON
 <Jan01-2013> <00:01:15>  >>>> GENPT
 <Jan01-2013> <00:01:15>  Block Length= 128
 <Jan01-2013> <00:01:15>  >>>> PTBAS
 <Jan01-2013> <00:01:16>  >>>> CYCLE
 <Jan01-2013> <00:01:16>    1
 <Jan01-2013> <00:01:16>    2  ErrMat   0.00007360  MaxEl -0.00002380
 <Jan01-2013> <00:01:16>    3  ErrMat   0.00004940  MaxEl -0.00001617
 <Jan01-2013> <00:01:16>    4  ErrMat   0.00002468  MaxEl -0.00000545
 <Jan01-2013> <00:01:16>    5  ErrMat   0.00000174  MaxEl  0.00000041
 <Jan01-2013> <00:01:16>  SCF converged
 <Jan01-2013> <00:01:17>    6  ErrMat   0.00000023  MaxEl  0.00000006
 <Jan01-2013> <00:01:17>  >>>> TOTEN
 <Jan01-2013> <00:01:17>  >>>> POPAN
 <Jan01-2013> <00:01:17>  >>>> DEBYE
 <Jan01-2013> <00:01:17>  >>>> AMETS
 <Jan01-2013> <00:01:17>  >>>> ENGRAD
 <Jan01-2013> <00:01:18>  Force Constants computed
 <Jan01-2013> <00:01:18>  There were warnings during force constant computation. Please check the output file.
 <Jan01-2013> <00:01:18>  NORMAL TERMINATION
 <Jan01-2013> <00:01:18>  END
