
 *******************************************************************************
 *                                                                             *
 *  -------------------------------------                                      *
 *   Amsterdam Density Functional  (ADF)         2013.01   April 2, 2013       *
 *  -------------------------------------                                      *
 *                                               Build 201304112106            *
 *                                                                             *
 *                                                                             *
 *                            =====================                            *
 *                            |                   |                            *
 *                            |     D I R A C     |                            *
 *                            |                   |                            *
 *                            =====================                            *
 *                                                                             *
 *                                                                             *
 *   Online information and documentation:  http://www.scm.com                 *
 *   E-mail:  support@scm.com   info@scm.com                                   *
 *                                                                             *
 *   Scientific publications using ADF results must be properly referenced     *
 *   See the User Manuals (or the web site) for recommended citations          *
 *   The terms and conditions of the End User License Agreement apply to       *
 *   the use of ADF, http://www.scm.com/Sales/LicAgreement.html                *
 *                                                                             *
 ****************************  x86_64_linux_intel  *****************************
 
 Licensed to: Prof. Cacier Hadad / University of Antioquia / Medellin / COLOMBIA
 SCM User ID: u15319
  
 DIRAC 2013.01  RunTime: Jan01-2013 00:00:00  Nodes: 1  Procs: 1

 Temporary files are created in /home/scratch/adf/kid_0.C8y6nG

1
 HYDROGEN ATOM RELATIVISTIC, Point Nuc, A and c from libtc   
 N J RN H ZN XION ANUC CLIGHT
 5000    1100.00000000197.36710137  1.00000000  0.00000000    1.007825  0.1370360E+03
  PH   PHI     EPS        DEL        DELRVR
  0.30  0.30     2500.00  0.00001000  0.00001000
 IDIRC  NC1  NDEBU NPRIN  IPUN IRCOR IWCOR
   1   300     0     0     0     0     0
   XALPHA      XLATTER      RNUC
  0.70000000  0.00000000  0.00000000 Point Charge
   XN   XL   XJ      XE          XZ      XDELL
  1.0  0.0  0.5      -1.000       1.000     0.00000
 ICORP=  0  NPCL=  0  DEMP=0.00  PEPS=0.000000
 R(1)=  0.1000000E-08 D=  0.1005080E+01 RNUC=  0.0000000E+00
 converged at cycle   32  DENSITY AVERAGING    0.2400
  MAXIMUM ERROR IN R.V(R) IS   0.79874357E-05
 Q,EY,EV,EZ,ESUM,ETOT,RHO  0.100000E+01 -0.266614E+00 -0.619969E+00 -0.910779E+00 -0.203940E+00 -0.415998E+00  0.337036E-17


 DIRAC CALCULATION
1                    HYDROGEN ATOM RELATIVISTIC, Point Nuc, A and c from libtc


 EXCHANGE COEFFICIENT=  0.7000000           TAIL CORRECTION=  0.           NUCLEAR RADIUS=  0.000E+00
0                       ORBITAL    N    L    J     ELECTRONS     EIGENVALUE                DELTA OF EIGENV.

                          1S1/2  1.0  0.0  0.5     1.000       -0.2039397E+00                 0.2720093E-06


                                        NUCLEAR CHARGE=    1.000000
                            INTEGRAL OF CHARGE DENSITY=    1.000000
                           SUM OF THE ORBITAL ENERGIES=     -0.2039
                                          TOTAL ENERGY=     -0.4160
                                        KINETIC ENERGY=      0.4160
                             NUCLEAR ATTRACTION ENERGY=     -0.9108
                             ELECTRON REPULSION ENERGY=      0.2787
                                       EXCHANGE ENERGY=     -0.2000

 *******************************************************************************

                             D I R A C   E X I T
 NORMAL TERMINATION



 =================
 Timing Statistics
 =================
  
 Total Used :                     CPU=        0.10      System=        0.03     Elapsed=        0.13

 Calls  Section                     ( Mean, Percentage )
 ---------------------------------------------------------------------------------------------------
     2  ><      ................      0.00    0.00             0.00    0.04             0.00    0.01
     1  EXIT PROCEDURE .........      0.10  100.00             0.03   99.96             0.13   99.99


 Currently Open Files (EXIT00)
 ====================

 Unit    Access Format  Status   Type       Ident (file)
 -------------------------------------------------------
   3      SEQ    FORM   TRANSP  NORMAL      LOGFILE
                                          ( logfile )


 Buffered I/O statistics
 =======================
 Memory available:                     67108864
 Number of records fitting in memory:     16131
 Input : 100.0% of                            0  *4k bytes
 Output: 100.0% of                            0  *4k bytes
 Records from serial files evicted:           0
                    others evicted:           0
 Hash table lookups:          0 with          0 conflicts (100.00%)
(INPUT FILE)
Create H   file=/home/danian/Documents/programas/adf2013.01/atomicdata/ZORA/QZ4P/H
 XC
 GGA PBE
End
relativistic ZORA
Corepotentials t12.rel
End Input

 *******************************************************************************
 *                                                                             *
 *  -------------------------------------                                      *
 *   Amsterdam Density Functional  (ADF)         2013.01   April 2, 2013       *
 *  -------------------------------------                                      *
 *                                               Build 201304112215            *
 *                                                                             *
 *                                                                             *
 *                              =================                              *
 *                              |               |                              *
 *                              |     A D F     |                              *
 *                              |               |                              *
 *                              =================                              *
 *                                                                             *
 *                                                                             *
 *   Online information and documentation:  http://www.scm.com                 *
 *   E-mail:  support@scm.com   info@scm.com                                   *
 *                                                                             *
 *   Scientific publications using ADF results must be properly referenced     *
 *   See the User Manuals (or the web site) for recommended citations          *
 *   The terms and conditions of the End User License Agreement apply to       *
 *   the use of ADF, http://www.scm.com/Sales/LicAgreement.html                *
 *                                                                             *
 ********************  x86_64_linux_intel / platform_mpi  **********************
 
 Licensed to: Prof. Cacier Hadad / University of Antioquia / Medellin / COLOMBIA
 SCM User ID: u15319
  
 ADF 2013.01  RunTime: Jan01-2013 00:00:01  Nodes: 1  Procs: 1

 Temporary files are created in /home/scratch/adf/kid_0.2BPguL

 Hydrogen (QZ, all electron, 5S 2P 2D)



 ===========================
 A T T A C H E D   F I L E S
 ===========================
  
 CREATE - Data File:    /home/danian/Documents/programas/adf2013.01/atomicdata/ZORA/QZ4P/H
                        Hydrogen (QZ, all electron, 5S 2P 2D)
 Core Potentials:
         file : t12.rel



 ===============================
 M O D E L   P A R A M E T E R S
 ===============================
  
 DENSITY FUNCTIONAL POTENTIAL (scf)
    LDA:                               PW92                                    == Not Default ==
    Gradient Corrections:              PBEc PBEx                               == Not Default ==

 SPIN  (restricted / unrestr.)
    Molecule:                          Restricted                               

 OTHER ASPECTS
    Relativistic Corrections:          scalar (ZORA,SAPA)                      == Not Default ==

    Nuclear Charge Density Model:      Point Charge Nuclei                                                                                                                                                                                     
    Core Treatment:                    Frozen Orbital(s)                        

    Hyperfine or Zeeman Interaction:   ---                                      



 =====================================
 S Y M M E T R Y ,   E L E C T R O N S
 =====================================
  
 Symmetry: ATOM

 Irreducible Representations, including subspecies
 -------------------------------------------------
 S
 P:x  P:y  P:z
 D:z2  D:x2-y2  D:xy  D:xz  D:yz
 F:z3  F:z  F:xyz  F:z2x  F:z2y  F:x  F:y


 Configuration of Valence Electrons
 ==================================

          Occupation Numbers
          -------------------------------------------------
 S        1
 P        0
 D        0
 F        0
          -------------------------------------------------

 Total:   1

 Net Charge: 0 (Nuclei minus Electrons)

 Preset values for MO occupations will be applied through SCF cycle no. 1000000
 Thereafter, the program will assign electrons to MOs that are spatially
 similar to the occupied MOs in a "reference" cycle ("KeepOrbitals").
 The reference cycle is always the PREVIOUS cycle: it will evolve with
 the SCF procedure.



 ================================
 (Slater-type)  F U N C T I O N S  ***  (Basis and Fit)  ***
 ================================
  

 Atom Type    1  (H)
 ==============

 Valence Basis Sets:   9
 -----------------------
   1 S    3.300000
   1 S    2.000000
   1 S    1.400000
   1 S    1.000000
   1 S    0.710000
   2 P    2.000000
   2 P    1.000000
   3 D    2.500000
   3 D    1.500000

 Charge Fitting Sets (for the computation of the Coulomb Potential):  22
 -----------------------------------------------------------------------
   1 S    6.600000
   1 S    4.620000
   1 S    3.230000
   1 S    2.260000
   1 S    1.580000
   1 S    1.100000
   1 S    0.770000
   2 S    1.000000
   2 P    5.300000
   2 P    3.870000
   2 P    2.820000
   2 P    2.060000
   2 P    1.500000
   3 D    5.800000
   3 D    4.070000
   3 D    2.850000
   3 D    2.000000
   4 F    4.500000
   4 F    3.350000
   4 F    2.500000
   5 G    5.000000
   5 G    3.000000


 BAS: List of all Elementary Cartesian Basis Functions
 =====================================================

 The numbering in the list below (to the right of the function characteristics) is referred
 to in print-outs of MO eigenvectors and Mulliken populations in the BAS representation
 (as contrasted to the SFO representation).

 Notes:
 1. The functions are characterized by a polynomial prefactor (powers of x,y,z and r) and
    an exponential decay factor alpha.
 2. Since the basis sets are specific for an atom TYPE, the individual functions occur on
    all atoms of that type.
 3. The word 'Core' in the left margin signals that it is a Core Function (CF) : not a
    degree of freedom in the valence set, but only used to ensure orthogonalization of
    the other valence basis functions on the frozen Core Orbitals.


 (power of) X  Y  Z  R     Alpha  on Atom
            ==========     =====     ==========

 H                                    1
                                  ---------------------------------------------------------------------------
            0  0  0  0     3.300      1
            0  0  0  0     2.000      2
            0  0  0  0     1.400      3
            0  0  0  0     1.000      4
            0  0  0  0     0.710      5
            1  0  0  0     2.000      6
            0  1  0  0     2.000      7
            0  0  1  0     2.000      8
            1  0  0  0     1.000      9
            0  1  0  0     1.000     10
            0  0  1  0     1.000     11
            2  0  0  0     2.500     12
            1  1  0  0     2.500     13
            1  0  1  0     2.500     14
            0  2  0  0     2.500     15
            0  1  1  0     2.500     16
            0  0  2  0     2.500     17
            2  0  0  0     1.500     18
            1  1  0  0     1.500     19
            1  0  1  0     1.500     20
            0  2  0  0     1.500     21
            0  1  1  0     1.500     22
            0  0  2  0     1.500     23

 Total number of charge fitting functions (nprimf)       107
 Total number of Cartesian basis functions (naos)         23
 Total number of Cartesian core functions  (ncos)          0



 BAS: List of all Elementary Cartesian Basis Functions
 =====================================================

 The numbering in the list below (to the right of the function characteristics) is referred
 to in print-outs of MO eigenvectors and Mulliken populations in the BAS representation
 (as contrasted to the SFO representation).

 Notes:
 1. The functions are characterized by a polynomial prefactor (powers of x,y,z and r) and
    an exponential decay factor alpha.
 2. Since the basis sets are specific for an atom TYPE, the individual functions occur on
    all atoms of that type.
 3. The word 'Core' in the left margin signals that it is a Core Function (CF) : not a
    degree of freedom in the valence set, but only used to ensure orthogonalization of
    the other valence basis functions on the frozen Core Orbitals.


 (power of) X  Y  Z  R     Alpha  on Atom
            ==========     =====     ==========

 H                                    1
                                  ---------------------------------------------------------------------------
            0  0  0  0     3.300      1
            0  0  0  0     2.000      2
            0  0  0  0     1.400      3
            0  0  0  0     1.000      4
            0  0  0  0     0.710      5
            1  0  0  0     2.000      6
            0  1  0  0     2.000      7
            0  0  1  0     2.000      8
            1  0  0  0     1.000      9
            0  1  0  0     1.000     10
            0  0  1  0     1.000     11
            2  0  0  0     2.500     12
            1  1  0  0     2.500     13
            1  0  1  0     2.500     14
            0  2  0  0     2.500     15
            0  1  1  0     2.500     16
            0  0  2  0     2.500     17
            2  0  0  0     1.500     18
            1  1  0  0     1.500     19
            1  0  1  0     1.500     20
            0  2  0  0     1.500     21
            0  1  1  0     1.500     22
            0  0  2  0     1.500     23
1
 ***************************************************************************************************



                                              ***********************
                                              *  T E C H N I C A L  *
                                              ***********************
  



 =============================================================
 P A R A L L E L I Z A T I O N  and  V E C T O R I Z A T I O N
 =============================================================
  
 Nr of parallel processes:                                1
 Maximum vector length in NumInt loops:                 128



 ===============
 I O  vs.  C P U  ***  (store numerical data on disk or recalculate)  ***
 ===============
  
 Basis functions:   recalculate when needed
 Fit functions:     recalculate when needed

 IO buffersize (Mb):                                     64.000000



 =====================
 S C F   U P D A T E S
 =====================
  
 Max. nr. of cycles:                               100
 Convergence criterion:                              0.0000000100
   secondary criterion:                              0.0000000100

 Mix parameter (when DIIS does not apply):           0.2000000000
 Special mix parameter for the first cycle:          1.0000000000


 DIIS (Direct Inversion in Iteration Space)
    Replace damping when SCF Error is below:         0.5000000000
    Apply anyway after SCF cycle:
                                                     5
    (Max.) nr. of expansion vectors:                10

    Upperbound on expansion coefficients:            5.0000000000
    (when exceeded, IterationSpace is re-built)
    2nd Upperbound on coefficients:                 25.0000000000
    (when exceeded, simple damping will be used)
 Automatic ElectronSmearing (in case of problematic SCF convergence) disabled



 =================
 P R E C I S I O N  ***  (General: NumInt, NeglectFunctionTails, ...)  ***
 =================
  

 NumInt:           Target precision:                10.0000000000
 -------           Initial precision:               10.0000000000
                   Min. precision (optimization):   10.0000000000

 Neglect Functions:          Basis functions:        0.1000000000E-11
 ------------------          Fit functions:          0.1000000000E-11



 ===========================
 L I N E A R   S C A L I N G
 ===========================
  

 Cut-off radii density fit:                        0.1000000000E-13
 Overlap cut-off criterion AO matrix elements:     0.1000000000E-11
 Cut-offs for Coulomb potential and fitted density:0.1000000000E-13
 Cut-off criterion for Coulomb multipole terms:    0.1000000000E-13
 Progressive Convergence parameter:                 0.000000000    
1
 ***************************************************************************************************



                                            ***************************
                                            *  C O M P U T A T I O N  *
                                            ***************************
  

 Number of elements of the density matrix on this node (used, total):       276       276



 ====================================================
 Numerical Integration : Voronoi Polyhedra (Te Velde)
 ====================================================
  
 General Accuracy Parameter :                         10.00

 Symmetry used in the points section:  ATOM  


 Summary of the Symmetry Unique Points:
 --------------------------------------
    Nr. of used Symmetry Operators                     1

    Points in the Atomic Spheres                      44
    Points in the Atomic Polyhedra                     0
    Points in the Outer Region                         0
    ----------------------------------------------------
    Total                                             44

    Sum of Weights                                 33854.777883

 Total nr. of points:         44
 Nr. of blocks:                1
 Block length:                44
 Nr. of dummy points:          0


 Test of Precision of the Numerical Integration Grid
 ===================================================

 Integral of the Total Core Density:                   0.00000000000000



 =====
 S C F
 =====
  

 CYCLE    1
 orbitals (Q,E):
 ---------------
 S :1...5            ( 1.00    -0.5000)  ( 0.00    -0.1102)  ( 0.00     0.2912)  ( 0.00     2.1458)
                     ( 0.00    15.1140)
 P :1...2            ( 0.00    -0.0467)  ( 0.00     1.6698)
 D :1...2            ( 0.00     0.4090)  ( 0.00     3.3827)

 CYCLE    2
 d-Pmat  mean:  0.40E-01
 imax=      4: -0.73E+00
 orbitals (Q,E):
 ---------------
 S :1...2            ( 1.00    -0.2213)  ( 0.00     0.0617)
 P :1...1            ( 0.00     0.1820)
 D :1...1            ( 0.00     0.6395)

 CYCLE    3
 d-Pmat  mean:  0.48E-02
 imax=      4:  0.66E-01
 orbitals (Q,E):
 ---------------
 S :1...2            ( 1.00    -0.2392)  ( 0.00     0.0523)
 P :1...1            ( 0.00     0.1713)
 D :1...1            ( 0.00     0.6290)

 CYCLE    4
 d-Pmat  mean:  0.47E-03
 imax=      4: -0.74E-02
 orbitals (Q,E):
 ---------------
 S :1...2            ( 1.00    -0.2386)  ( 0.00     0.0522)
 P :1...1            ( 0.00     0.1716)
 D :1...1            ( 0.00     0.6293)

 CYCLE    5
 d-Pmat  mean:  0.13E-04
 imax=      4:  0.20E-03
 orbitals (Q,E):
 ---------------
 S :1...2            ( 1.00    -0.2386)  ( 0.00     0.0522)
 P :1...1            ( 0.00     0.1716)
 D :1...1            ( 0.00     0.6293)

 CYCLE    6
 d-Pmat  mean:  0.14E-06
 imax=      4:  0.26E-05
 orbitals (Q,E):
 ---------------
 S :1...2            ( 1.00    -0.2386)  ( 0.00     0.0522)
 P :1...1            ( 0.00     0.1716)
 D :1...1            ( 0.00     0.6293)

 CYCLE    7
 d-Pmat  mean:  0.24E-08
 imax=      4:  0.39E-07
 orbitals (Q,E):
 ---------------
 S :1...2            ( 1.00    -0.2386)  ( 0.00     0.0522)
 P :1...1            ( 0.00     0.1716)
 D :1...1            ( 0.00     0.6293)

 SCF CONVERGED

 CYCLE    8
1
 ***************************************************************************************************



                                                *******************
                                                *  R E S U L T S  *
                                                *******************
  
 *** Setting up for NEW gradients in focky
 *** Using FIT density in focky

 Scaled ZORA Orbital Energies, per Irrep and Spin:
 =================================================
                        Occup              E (au)              E (eV)       Diff (eV) with prev. cycle
                        -----      --------------------        ------       --------------------------
 S
               1        1.000     -0.23860414448782E+00        -6.493              -2.15E-10
               2        0.000      0.52240780773457E-01         1.422
               3        0.000      0.50128711414823E+00        13.641
               4        0.000      0.23892611828179E+01        65.015
               5        0.000      0.15295018626306E+02       416.199
 P
               1        0.000      0.17156247999749E+00         4.668
               2        0.000      0.19364620405874E+01        52.694
 D
               1        0.000      0.62928666110103E+00        17.124
               2        0.000      0.36544214463356E+01        99.442


 Partially Occupied:
               1 S                -0.23860414448782E+00
  
 LUMO :        2 S                 0.52240780773457E-01
  


 Orbital Energies, all Irreps
 ========================================

 Irrep        no.  (spin)   Occup              E (au)                E (eV)
 ---------------------------------------------------------------------------
 S             1             1.00       -0.23860414448782E+00        -6.4927
 S             2             0.00        0.52240780773457E-01         1.4215
 P             1             0.00        0.17156247999749E+00         4.6685
 S             3             0.00        0.50128711414823E+00        13.6407
 D             1             0.00        0.62928666110103E+00        17.1238
 P             2             0.00        0.19364620405874E+01        52.6938
 S             4             0.00        0.23892611828179E+01        65.0151
 D             2             0.00        0.36544214463356E+01        99.4419
 S             5             0.00        0.15295018626306E+02       416.1986


 All Electron Calculation, thus no Orbital Energies of the Core Orbitals are calculated



 =======================================
 M U L L I K E N   P O P U L A T I O N S
 =======================================
  
 The survey below gives for each atom:
 a) the total charge (Z minus electrons)
 b) the net spin polarization (nr of electrons spin-A minus spin-B)
 c) for each spin the atomic electron valence density (integrated) per L-value.

 Atom              Charge    Spin density          S         P         D         F
 ----              ------    ------------       ------    ------    ------    ------
 1 H               0.0000                       1.0000    0.0000    0.0000    0.0000

 Populations of individual BAS functions
 ----------------------------------------
 1 H           -0.0037  0.0405  0.0399  0.5670  0.3563  0.0000  0.0000  0.0000  0.0000  0.0000
                0.0000  0.0000  0.0000  0.0000  0.0000  0.0000  0.0000  0.0000  0.0000  0.0000
                0.0000  0.0000  0.0000

 Gross Charges per Atom (Z minus electrons)
 ==========================================
             0.0000
 Net Total:  0.00000000


 Atom-Atom Population Matrix (off-diagonal elements not doubled)
 ===============================================================

     1 :     1.0000



 =============
 Dipole Moment  ***  (Debye)  ***
 =============
  
 Vector   :         0.00000000      0.00000000      0.00000000
 Magnitude:         0.00000000

 This molecular dipole moment is calculated with analytic integration



 =========================================
 Quadrupole Moment (Buckingham convention)  ***  (a.u.)  ***
 =========================================
  
      quad-xx        quad-xy        quad-xz        quad-yy        quad-yz        quad-zz
      0.00000000     0.00000000     0.00000000     0.00000000     0.00000000     0.00000000

 This molecular quadrupole moment is calculated with analytic integration



 ===============================================================================
 Electrostatic potential at the Nuclei due to valence electrons and other nuclei
 ===============================================================================
  
         Atom                  Potential
         ----                  ---------
     1)   H                   0.94463948
 
 
 ========================
 No memory problems found
 ========================
 
 Maximum number of active allocate calls:         378
 
 *******************************************************************************

                             A D F   E X I T
 NORMAL TERMINATION



 =================
 Timing Statistics
 =================
  
 Total Used :                     CPU=        0.14      System=        0.05     Elapsed=        0.20

 Calls  Section                     ( Mean, Percentage )
 ---------------------------------------------------------------------------------------------------
     3  ><      ................      0.00    0.93             0.00    0.02             0.00    0.68
     1  INIT    ................      0.01    3.52             0.00    4.81             0.01    3.83
     1  GEOMET  ................      0.01    3.94             0.04   69.33             0.04   21.82
     1  INPUTA  ................      0.00    0.00             0.00    3.61             0.00    0.96
     1  MAINSY  ................      0.01    4.59             0.00    3.05             0.01    4.13
     1  SYMFIT  ................      0.00    0.51             0.00    0.00             0.00    0.51
     1  CORORT  ................      0.00    0.35             0.00    0.00             0.00    0.25
     1  SYMORB  ................      0.00    0.74             0.00    0.00             0.00    0.53
     1  FITINT  ................      0.01    5.49             0.00    0.00             0.01    3.97
     1  CLSMAT  ................      0.00    0.31             0.00    0.00             0.00    0.22
     1  ORTHON  ................      0.00    0.98             0.00    0.00             0.00    0.71
     1  GENPT   ................      0.01    4.23             0.00    0.00             0.01    3.06
     1  PTBAS   ................      0.00    1.23             0.00    0.00             0.00    0.99
     8  FOCKY   ................      0.01   46.60             0.00    8.91             0.01   36.18
     8  FOCKTR  ................      0.00    1.35             0.00    0.38             0.00    1.07
     8  FOCKNM  ................      0.00    0.15             0.00    0.03             0.00    0.11
     8  SDIIS   ................      0.00    1.92             0.00    0.53             0.00    1.57
     8  EMERGE  ................      0.00   12.15             0.00    1.89             0.00    9.38
     1  COREPS  ................      0.00    1.47             0.00    0.46             0.00    1.18
     1  POPAN   ................      0.00    1.06             0.00    0.00             0.00    0.76
     1  DEBYE   ................      0.00    0.22             0.00    0.00             0.00    0.16
     1  QMPOT   ................      0.00    0.05             0.00    4.57             0.00    1.26
     1  EXIT PROCEDURE .........      0.01    8.25             0.00    2.41             0.01    6.65


 Currently Open Files (EXIT00)
 ====================

 Unit    Access Format  Status   Type       Ident (file)
 -------------------------------------------------------
   3      SEQ    FORM   TRANSP  NORMAL      LOGFILE
                                          ( logfile )


 Buffered I/O statistics
 =======================
 Memory available:                     67108864
 Number of records fitting in memory:     16131
 Input :   1.3% of                         3604  *4k bytes
 Output:  10.6% of                         1855  *4k bytes
 Records from serial files evicted:           0
                    others evicted:           0
 Hash table lookups:      14887 with          0 conflicts (  0.00%)

 ***************************************************************************************************
 (LOGFILE)
 <Jan01-2013> <00:00:00>  DIRAC 2013.01  RunTime: Jan01-2013 00:00:00  Nodes: 1  Procs: 1
 <Jan01-2013> <00:00:00>  NORMAL TERMINATION
 <Jan01-2013> <00:00:01>  END
 <Jan01-2013> <00:00:01>  ADF 2013.01  RunTime: Jan01-2013 00:00:01  Nodes: 1  Procs: 1
 <Jan01-2013> <00:00:01>  Hydrogen (QZ, all electron, 5S 2P 2D)
 <Jan01-2013> <00:00:01>  RunType   : CREATE
 <Jan01-2013> <00:00:01>  Net Charge: 0 (Nuclei minus Electrons)
 <Jan01-2013> <00:00:01>  Symmetry  : ATOM
  Coordinates
    Atom         X           Y           Z   (Angstrom)
    1.H         0.000000    0.000000    0.000000
 <Jan01-2013> <00:00:01>  >>>> CORORT
 <Jan01-2013> <00:00:01>  >>>> FITINT
 <Jan01-2013> <00:00:01>  >>>> CLSMAT
 <Jan01-2013> <00:00:01>  >>>> ORTHON
 <Jan01-2013> <00:00:01>  >>>> GENPT
 <Jan01-2013> <00:00:01>  Acc.Num.Int.=  10.000
 <Jan01-2013> <00:00:01>  Block Length=  44
 <Jan01-2013> <00:00:01>  >>>> PTBAS
 <Jan01-2013> <00:00:01>  >>>> CYCLE
 <Jan01-2013> <00:00:01>    1
 <Jan01-2013> <00:00:01>    2  ErrMat   0.03803841  MaxEl  0.03078708
 <Jan01-2013> <00:00:01>    3  ErrMat   0.00916622  MaxEl -0.00901560
 <Jan01-2013> <00:00:01>    4  ErrMat   0.00035667  MaxEl  0.00031421
 <Jan01-2013> <00:00:01>    5  ErrMat   0.00000962  MaxEl -0.00000892
 <Jan01-2013> <00:00:01>    6  ErrMat   0.00000013  MaxEl  0.00000008
 <Jan01-2013> <00:00:01>    7  ErrMat   0.00000000  MaxEl  0.00000000
 <Jan01-2013> <00:00:01>  SCF converged
 <Jan01-2013> <00:00:01>    8  ErrMat   0.00000000  MaxEl  0.00000000
 <Jan01-2013> <00:00:01>   Solutions with partially occupied orbitals may not be
 <Jan01-2013> <00:00:01>   lowest in energy. You might consider lowering the
 <Jan01-2013> <00:00:01>   symmetry in the input and explicitly specifying integer
 <Jan01-2013> <00:00:01>   occupations. In that case always check that you obtain
 <Jan01-2013> <00:00:01>   an aufbau solution.
 <Jan01-2013> <00:00:01>  >>>> POPAN
 <Jan01-2013> <00:00:01>  >>>> DEBYE
 <Jan01-2013> <00:00:01>  NORMAL TERMINATION
 <Jan01-2013> <00:00:01>  END

 *******************************************************************************
 *                                                                             *
 *  -------------------------------------                                      *
 *   Amsterdam Density Functional  (ADF)         2013.01   April 2, 2013       *
 *  -------------------------------------                                      *
 *                                               Build 201304112106            *
 *                                                                             *
 *                                                                             *
 *                            =====================                            *
 *                            |                   |                            *
 *                            |     D I R A C     |                            *
 *                            |                   |                            *
 *                            =====================                            *
 *                                                                             *
 *                                                                             *
 *   Online information and documentation:  http://www.scm.com                 *
 *   E-mail:  support@scm.com   info@scm.com                                   *
 *                                                                             *
 *   Scientific publications using ADF results must be properly referenced     *
 *   See the User Manuals (or the web site) for recommended citations          *
 *   The terms and conditions of the End User License Agreement apply to       *
 *   the use of ADF, http://www.scm.com/Sales/LicAgreement.html                *
 *                                                                             *
 ****************************  x86_64_linux_intel  *****************************
 
 Licensed to: Prof. Cacier Hadad / University of Antioquia / Medellin / COLOMBIA
 SCM User ID: u15319
  
 DIRAC 2013.01  RunTime: Jan01-2013 00:00:01  Nodes: 1  Procs: 1

 Temporary files are created in /home/scratch/adf/kid_0.BIxoT1

1
 OXYGEN ATOM all electron RELATIVISTIC, Point Nuc, A and c fr
 N J RN H ZN XION ANUC CLIGHT
 5000    4100.00000000197.36710137  8.00000000  0.00000000   15.994914  0.1370360E+03
  PH   PHI     EPS        DEL        DELRVR
  0.30  0.30     2500.00  0.00001000  0.00001000
 IDIRC  NC1  NDEBU NPRIN  IPUN IRCOR IWCOR
   1   300     0     0     0     0     0
   XALPHA      XLATTER      RNUC
  0.70000000  0.00000000  0.00000000 Point Charge
   XN   XL   XJ      XE          XZ      XDELL
  1.0  0.0  0.5      -5.000       2.000     0.00000
  2.0  0.0  0.5      -1.000       2.000     0.00000
  2.0  1.0  0.5      -1.000       2.000     0.00000
  2.0  1.0  1.5      -1.000       2.000     0.00000
 ICORP=  0  NPCL=  0  DEMP=0.00  PEPS=0.000000
 R(1)=  0.1000000E-08 D=  0.1005080E+01 RNUC=  0.0000000E+00
 converged at cycle   28  DENSITY AVERAGING    0.2400
  MAXIMUM ERROR IN R.V(R) IS   0.81125670E-05
 Q,EY,EV,EZ,ESUM,ETOT,RHO  0.800000E+01 -0.101247E+02 -0.114961E+03 -0.177573E+03 -0.405053E+02 -0.743427E+02  0.414766E-14


 DIRAC CALCULATION
1                    OXYGEN ATOM all electron RELATIVISTIC, Point Nuc, A and c from libtc


 EXCHANGE COEFFICIENT=  0.7000000           TAIL CORRECTION=  0.           NUCLEAR RADIUS=  0.000E+00
0                       ORBITAL    N    L    J     ELECTRONS     EIGENVALUE                DELTA OF EIGENV.

                          1S1/2  1.0  0.0  0.5     2.000       -0.1880014E+02                 0.7264359E-06
                          2S1/2  2.0  0.0  0.5     2.000       -0.8412236E+00                 0.5932752E-05
                          2P1/2  2.0  1.0  0.5     2.000       -0.3063203E+00                 0.5998471E-05
                          2P3/2  2.0  1.0  1.5     2.000       -0.3049609E+00                 0.5986971E-05


                                        NUCLEAR CHARGE=    8.000000
                            INTEGRAL OF CHARGE DENSITY=    8.000000
                           SUM OF THE ORBITAL ENERGIES=    -40.5053
                                          TOTAL ENERGY=    -74.3427
                                        KINETIC ENERGY=     74.4552
                             NUCLEAR ATTRACTION ENERGY=   -177.5730
                             ELECTRON REPULSION ENERGY=     36.3686
                                       EXCHANGE ENERGY=     -7.5935

 *******************************************************************************

                             D I R A C   E X I T
 NORMAL TERMINATION



 =================
 Timing Statistics
 =================
  
 Total Used :                     CPU=        0.13      System=        0.03     Elapsed=        0.17

 Calls  Section                     ( Mean, Percentage )
 ---------------------------------------------------------------------------------------------------
     2  ><      ................      0.00    0.00             0.00    0.04             0.00    0.01
     1  EXIT PROCEDURE .........      0.13  100.00             0.03   99.96             0.17   99.99


 Currently Open Files (EXIT00)
 ====================

 Unit    Access Format  Status   Type       Ident (file)
 -------------------------------------------------------
   3      SEQ    FORM   TRANSP  NORMAL      LOGFILE
                                          ( logfile )


 Buffered I/O statistics
 =======================
 Memory available:                     67108864
 Number of records fitting in memory:     16131
 Input : 100.0% of                            0  *4k bytes
 Output: 100.0% of                            0  *4k bytes
 Records from serial files evicted:           0
                    others evicted:           0
 Hash table lookups:          0 with          0 conflicts (100.00%)
(INPUT FILE)
Create O   file=/home/danian/Documents/programas/adf2013.01/atomicdata/ZORA/QZ4P/O
 XC
 GGA PBE
End
relativistic ZORA
Corepotentials t12.rel
End Input

 *******************************************************************************
 *                                                                             *
 *  -------------------------------------                                      *
 *   Amsterdam Density Functional  (ADF)         2013.01   April 2, 2013       *
 *  -------------------------------------                                      *
 *                                               Build 201304112215            *
 *                                                                             *
 *                                                                             *
 *                              =================                              *
 *                              |               |                              *
 *                              |     A D F     |                              *
 *                              |               |                              *
 *                              =================                              *
 *                                                                             *
 *                                                                             *
 *   Online information and documentation:  http://www.scm.com                 *
 *   E-mail:  support@scm.com   info@scm.com                                   *
 *                                                                             *
 *   Scientific publications using ADF results must be properly referenced     *
 *   See the User Manuals (or the web site) for recommended citations          *
 *   The terms and conditions of the End User License Agreement apply to       *
 *   the use of ADF, http://www.scm.com/Sales/LicAgreement.html                *
 *                                                                             *
 ********************  x86_64_linux_intel / platform_mpi  **********************
 
 Licensed to: Prof. Cacier Hadad / University of Antioquia / Medellin / COLOMBIA
 SCM User ID: u15319
  
 ADF 2013.01  RunTime: Jan01-2013 00:00:01  Nodes: 1  Procs: 1

 Temporary files are created in /home/scratch/adf/kid_0.MFxkLf

 Oxygen (QZ, all electron, 8S 4P 2D 2F)



 ===========================
 A T T A C H E D   F I L E S
 ===========================
  
 CREATE - Data File:    /home/danian/Documents/programas/adf2013.01/atomicdata/ZORA/QZ4P/O
                        Oxygen (QZ, all electron, 8S 4P 2D 2F)
 Core Potentials:
         file : t12.rel



 ===============================
 M O D E L   P A R A M E T E R S
 ===============================
  
 DENSITY FUNCTIONAL POTENTIAL (scf)
    LDA:                               PW92                                    == Not Default ==
    Gradient Corrections:              PBEc PBEx                               == Not Default ==

 SPIN  (restricted / unrestr.)
    Molecule:                          Restricted                               

 OTHER ASPECTS
    Relativistic Corrections:          scalar (ZORA,SAPA)                      == Not Default ==

    Nuclear Charge Density Model:      Point Charge Nuclei                                                                                                                                                                                     
    Core Treatment:                    Frozen Orbital(s)                        

    Hyperfine or Zeeman Interaction:   ---                                      



 =====================================
 S Y M M E T R Y ,   E L E C T R O N S
 =====================================
  
 Symmetry: ATOM

 Irreducible Representations, including subspecies
 -------------------------------------------------
 S
 P:x  P:y  P:z
 D:z2  D:x2-y2  D:xy  D:xz  D:yz
 F:z3  F:z  F:xyz  F:z2x  F:z2y  F:x  F:y


 Configuration of Valence Electrons
 ==================================

          Occupation Numbers
          -------------------------------------------------
 S        2*2
 P        4
 D        0
 F        0
          -------------------------------------------------

 Total:   8

 Net Charge: 0 (Nuclei minus Electrons)

 Preset values for MO occupations will be applied through SCF cycle no. 1000000
 Thereafter, the program will assign electrons to MOs that are spatially
 similar to the occupied MOs in a "reference" cycle ("KeepOrbitals").
 The reference cycle is always the PREVIOUS cycle: it will evolve with
 the SCF procedure.



 ================================
 (Slater-type)  F U N C T I O N S  ***  (Basis and Fit)  ***
 ================================
  

 Atom Type    1  (O)
 ==============

 Valence Basis Sets:  16
 -----------------------
   1 S   14.800000
   1 S    8.750000
   1 S    6.650000
   2 S    7.100000
   2 S    3.200000
   2 S    2.050000
   2 S    1.500000
   2 S    0.750000
   2 P    5.700000
   2 P    3.050000
   2 P    1.650000
   2 P    1.000000
   3 D    2.500000
   3 D    1.500000
   4 F    4.000000
   4 F    2.000000

 Charge Fitting Sets (for the computation of the Coulomb Potential):  37
 -----------------------------------------------------------------------
   1 S   29.600000
   1 S   22.760000
   1 S   17.500000
   1 S   11.580000
   2 S   14.160000
   2 S   10.290000
   2 S    7.480000
   2 S    5.430000
   3 S    5.780000
   3 S    4.410000
   3 S    3.370000
   3 S    2.570000
   3 S    1.960000
   3 S    1.500000
   2 P   14.450000
   2 P    9.770000
   2 P    6.610000
   3 P    6.560000
   3 P    4.710000
   3 P    3.390000
   3 P    2.430000
   3 P    1.750000
   3 D   11.400000
   3 D    7.640000
   3 D    5.120000
   4 D    4.550000
   4 D    3.200000
   4 D    2.250000
   4 F   12.750000
   4 F    8.120000
   4 F    5.170000
   5 F    4.130000
   5 F    2.750000
   5 G    9.700000
   5 G    6.560000
   5 G    4.440000
   5 G    3.000000


 BAS: List of all Elementary Cartesian Basis Functions
 =====================================================

 The numbering in the list below (to the right of the function characteristics) is referred
 to in print-outs of MO eigenvectors and Mulliken populations in the BAS representation
 (as contrasted to the SFO representation).

 Notes:
 1. The functions are characterized by a polynomial prefactor (powers of x,y,z and r) and
    an exponential decay factor alpha.
 2. Since the basis sets are specific for an atom TYPE, the individual functions occur on
    all atoms of that type.
 3. The word 'Core' in the left margin signals that it is a Core Function (CF) : not a
    degree of freedom in the valence set, but only used to ensure orthogonalization of
    the other valence basis functions on the frozen Core Orbitals.


 (power of) X  Y  Z  R     Alpha  on Atom
            ==========     =====     ==========

 O                                    1
                                  ---------------------------------------------------------------------------
            0  0  0  0    14.800      1
            0  0  0  0     8.750      2
            0  0  0  0     6.650      3
            0  0  0  1     7.100      4
            0  0  0  1     3.200      5
            0  0  0  1     2.050      6
            0  0  0  1     1.500      7
            0  0  0  1     0.750      8
            1  0  0  0     5.700      9
            0  1  0  0     5.700     10
            0  0  1  0     5.700     11
            1  0  0  0     3.050     12
            0  1  0  0     3.050     13
            0  0  1  0     3.050     14
            1  0  0  0     1.650     15
            0  1  0  0     1.650     16
            0  0  1  0     1.650     17
            1  0  0  0     1.000     18
            0  1  0  0     1.000     19
            0  0  1  0     1.000     20
            2  0  0  0     2.500     21
            1  1  0  0     2.500     22
            1  0  1  0     2.500     23
            0  2  0  0     2.500     24
            0  1  1  0     2.500     25
            0  0  2  0     2.500     26
            2  0  0  0     1.500     27
            1  1  0  0     1.500     28
            1  0  1  0     1.500     29
            0  2  0  0     1.500     30
            0  1  1  0     1.500     31
            0  0  2  0     1.500     32
            3  0  0  0     4.000     33
            2  1  0  0     4.000     34
            2  0  1  0     4.000     35
            1  2  0  0     4.000     36
            1  1  1  0     4.000     37
            1  0  2  0     4.000     38
            0  3  0  0     4.000     39
            0  2  1  0     4.000     40
            0  1  2  0     4.000     41
            0  0  3  0     4.000     42
            3  0  0  0     2.000     43
            2  1  0  0     2.000     44
            2  0  1  0     2.000     45
            1  2  0  0     2.000     46
            1  1  1  0     2.000     47
            1  0  2  0     2.000     48
            0  3  0  0     2.000     49
            0  2  1  0     2.000     50
            0  1  2  0     2.000     51
            0  0  3  0     2.000     52

 Total number of charge fitting functions (nprimf)       184
 Total number of Cartesian basis functions (naos)         52
 Total number of Cartesian core functions  (ncos)          0



 BAS: List of all Elementary Cartesian Basis Functions
 =====================================================

 The numbering in the list below (to the right of the function characteristics) is referred
 to in print-outs of MO eigenvectors and Mulliken populations in the BAS representation
 (as contrasted to the SFO representation).

 Notes:
 1. The functions are characterized by a polynomial prefactor (powers of x,y,z and r) and
    an exponential decay factor alpha.
 2. Since the basis sets are specific for an atom TYPE, the individual functions occur on
    all atoms of that type.
 3. The word 'Core' in the left margin signals that it is a Core Function (CF) : not a
    degree of freedom in the valence set, but only used to ensure orthogonalization of
    the other valence basis functions on the frozen Core Orbitals.


 (power of) X  Y  Z  R     Alpha  on Atom
            ==========     =====     ==========

 O                                    1
                                  ---------------------------------------------------------------------------
            0  0  0  0    14.800      1
            0  0  0  0     8.750      2
            0  0  0  0     6.650      3
            0  0  0  1     7.100      4
            0  0  0  1     3.200      5
            0  0  0  1     2.050      6
            0  0  0  1     1.500      7
            0  0  0  1     0.750      8
            1  0  0  0     5.700      9
            0  1  0  0     5.700     10
            0  0  1  0     5.700     11
            1  0  0  0     3.050     12
            0  1  0  0     3.050     13
            0  0  1  0     3.050     14
            1  0  0  0     1.650     15
            0  1  0  0     1.650     16
            0  0  1  0     1.650     17
            1  0  0  0     1.000     18
            0  1  0  0     1.000     19
            0  0  1  0     1.000     20
            2  0  0  0     2.500     21
            1  1  0  0     2.500     22
            1  0  1  0     2.500     23
            0  2  0  0     2.500     24
            0  1  1  0     2.500     25
            0  0  2  0     2.500     26
            2  0  0  0     1.500     27
            1  1  0  0     1.500     28
            1  0  1  0     1.500     29
            0  2  0  0     1.500     30
            0  1  1  0     1.500     31
            0  0  2  0     1.500     32
            3  0  0  0     4.000     33
            2  1  0  0     4.000     34
            2  0  1  0     4.000     35
            1  2  0  0     4.000     36
            1  1  1  0     4.000     37
            1  0  2  0     4.000     38
            0  3  0  0     4.000     39
            0  2  1  0     4.000     40
            0  1  2  0     4.000     41
            0  0  3  0     4.000     42
            3  0  0  0     2.000     43
            2  1  0  0     2.000     44
            2  0  1  0     2.000     45
            1  2  0  0     2.000     46
            1  1  1  0     2.000     47
            1  0  2  0     2.000     48
            0  3  0  0     2.000     49
            0  2  1  0     2.000     50
            0  1  2  0     2.000     51
            0  0  3  0     2.000     52
1
 ***************************************************************************************************



                                              ***********************
                                              *  T E C H N I C A L  *
                                              ***********************
  



 =============================================================
 P A R A L L E L I Z A T I O N  and  V E C T O R I Z A T I O N
 =============================================================
  
 Nr of parallel processes:                                1
 Maximum vector length in NumInt loops:                 128



 ===============
 I O  vs.  C P U  ***  (store numerical data on disk or recalculate)  ***
 ===============
  
 Basis functions:   recalculate when needed
 Fit functions:     recalculate when needed

 IO buffersize (Mb):                                     64.000000



 =====================
 S C F   U P D A T E S
 =====================
  
 Max. nr. of cycles:                               100
 Convergence criterion:                              0.0000000100
   secondary criterion:                              0.0000000100

 Mix parameter (when DIIS does not apply):           0.2000000000
 Special mix parameter for the first cycle:          1.0000000000


 DIIS (Direct Inversion in Iteration Space)
    Replace damping when SCF Error is below:         0.5000000000
    Apply anyway after SCF cycle:
                                                     5
    (Max.) nr. of expansion vectors:                10

    Upperbound on expansion coefficients:            5.0000000000
    (when exceeded, IterationSpace is re-built)
    2nd Upperbound on coefficients:                 25.0000000000
    (when exceeded, simple damping will be used)
 Automatic ElectronSmearing (in case of problematic SCF convergence) disabled



 =================
 P R E C I S I O N  ***  (General: NumInt, NeglectFunctionTails, ...)  ***
 =================
  

 NumInt:           Target precision:                10.0000000000
 -------           Initial precision:               10.0000000000
                   Min. precision (optimization):   10.0000000000

 Neglect Functions:          Basis functions:        0.1000000000E-11
 ------------------          Fit functions:          0.1000000000E-11



 ===========================
 L I N E A R   S C A L I N G
 ===========================
  

 Cut-off radii density fit:                        0.1000000000E-13
 Overlap cut-off criterion AO matrix elements:     0.1000000000E-11
 Cut-offs for Coulomb potential and fitted density:0.1000000000E-13
 Cut-off criterion for Coulomb multipole terms:    0.1000000000E-13
 Progressive Convergence parameter:                 0.000000000    
1
 ***************************************************************************************************



                                            ***************************
                                            *  C O M P U T A T I O N  *
                                            ***************************
  

 Number of elements of the density matrix on this node (used, total):      1378      1378



 ====================================================
 Numerical Integration : Voronoi Polyhedra (Te Velde)
 ====================================================
  
 General Accuracy Parameter :                         10.00

 Symmetry used in the points section:  ATOM  


 Summary of the Symmetry Unique Points:
 --------------------------------------
    Nr. of used Symmetry Operators                     1

    Points in the Atomic Spheres                      61
    Points in the Atomic Polyhedra                     0
    Points in the Outer Region                         0
    ----------------------------------------------------
    Total                                             61

    Sum of Weights                                 58501.056183

 Total nr. of points:         61
 Nr. of blocks:                1
 Block length:                61
 Nr. of dummy points:          0


 Test of Precision of the Numerical Integration Grid
 ===================================================

 Integral of the Total Core Density:                   0.00000000000000



 =====
 S C F
 =====
  

 CYCLE    1
 orbitals (Q,E):
 ---------------
 S :1...8            ( 2.00   -32.0159)  ( 2.00    -8.0044)  ( 0.00    -3.5574)  ( 0.00    -1.9901)
                     ( 0.00    -1.2515)  ( 0.00     4.1058)  ( 0.00    41.2206)  ( 0.00   308.5800)
 P :1...4            ( 4.00    -7.9758)  ( 0.00    -3.5116)  ( 0.00    -1.8856)  ( 0.00     3.1956)
 D :1...2            ( 0.00    -3.5495)  ( 0.00    -1.9917)
 F :1...2            ( 0.00    -1.9999)  ( 0.00     1.0590)

 CYCLE    2
 d-Pmat  mean:  0.11E+01
 imax=      3: -0.25E+02
 orbitals (Q,E):
 ---------------
 S :1...3            ( 2.00   -14.5566)  ( 2.00    -0.0356)  ( 0.00     0.1667)
 P :1...2            ( 4.00     0.2048)  ( 0.00     0.7903)
 D :1...1            ( 0.00     0.7381)
 F :1...1            ( 0.00     1.6042)

 CYCLE    3
 d-Pmat  mean:  0.30E+00
 imax=     20: -0.24E+01
 orbitals (Q,E):
 ---------------
 S :1...3            ( 2.00   -16.2388)  ( 2.00    -0.4301)  ( 0.00     0.0620)
 P :1...2            ( 4.00     0.0108)  ( 0.00     0.4058)
 D :1...1            ( 0.00     0.5775)
 F :1...1            ( 0.00     1.4155)

 CYCLE    4
 d-Pmat  mean:  0.10E+00
 imax=     20: -0.11E+01
 orbitals (Q,E):
 ---------------
 S :1...3            ( 2.00   -17.2725)  ( 2.00    -0.6986)  ( 0.00     0.0275)
 P :1...2            ( 4.00    -0.1717)  ( 0.00     0.2612)
 D :1...1            ( 0.00     0.5085)
 F :1...1            ( 0.00     1.3362)

 CYCLE    5
 d-Pmat  mean:  0.56E-01
 imax=      3:  0.70E+00
 orbitals (Q,E):
 ---------------
 S :1...3            ( 2.00   -18.8741)  ( 2.00    -0.8425)  ( 0.00     0.0251)
 P :1...2            ( 4.00    -0.2957)  ( 0.00     0.2201)
 D :1...1            ( 0.00     0.5505)
 F :1...1            ( 0.00     1.3859)

 CYCLE    6
 d-Pmat  mean:  0.57E-02
 imax=      2:  0.75E-01
 orbitals (Q,E):
 ---------------
 S :1...3            ( 2.00   -18.9263)  ( 2.00    -0.8875)  ( 0.00     0.0144)
 P :1...2            ( 4.00    -0.3386)  ( 0.00     0.1983)
 D :1...1            ( 0.00     0.5241)
 F :1...1            ( 0.00     1.3583)

 CYCLE    7
 d-Pmat  mean:  0.80E-03
 imax=      6: -0.45E-02
 orbitals (Q,E):
 ---------------
 S :1...3            ( 2.00   -18.9106)  ( 2.00    -0.8796)  ( 0.00     0.0160)
 P :1...2            ( 4.00    -0.3310)  ( 0.00     0.2007)
 D :1...1            ( 0.00     0.5265)
 F :1...1            ( 0.00     1.3609)

 CYCLE    8
 d-Pmat  mean:  0.91E-04
 imax=      6:  0.77E-03
 orbitals (Q,E):
 ---------------
 S :1...3            ( 2.00   -18.9122)  ( 2.00    -0.8804)  ( 0.00     0.0159)
 P :1...2            ( 4.00    -0.3317)  ( 0.00     0.2005)
 D :1...1            ( 0.00     0.5262)
 F :1...1            ( 0.00     1.3606)

 CYCLE    9
 d-Pmat  mean:  0.72E-06
 imax=      2: -0.12E-04
 orbitals (Q,E):
 ---------------
 S :1...3            ( 2.00   -18.9122)  ( 2.00    -0.8804)  ( 0.00     0.0159)
 P :1...2            ( 4.00    -0.3317)  ( 0.00     0.2005)
 D :1...1            ( 0.00     0.5262)
 F :1...1            ( 0.00     1.3606)

 CYCLE   10
 d-Pmat  mean:  0.12E-07
 imax=      6: -0.16E-06
 orbitals (Q,E):
 ---------------
 S :1...3            ( 2.00   -18.9122)  ( 2.00    -0.8804)  ( 0.00     0.0159)
 P :1...2            ( 4.00    -0.3317)  ( 0.00     0.2005)
 D :1...1            ( 0.00     0.5262)
 F :1...1            ( 0.00     1.3606)

 CYCLE   11
 d-Pmat  mean:  0.14E-09
 imax=      6: -0.15E-08
 orbitals (Q,E):
 ---------------
 S :1...3            ( 2.00   -18.9122)  ( 2.00    -0.8804)  ( 0.00     0.0159)
 P :1...2            ( 4.00    -0.3317)  ( 0.00     0.2005)
 D :1...1            ( 0.00     0.5262)
 F :1...1            ( 0.00     1.3606)

 SCF CONVERGED

 CYCLE   12
1
 ***************************************************************************************************



                                                *******************
                                                *  R E S U L T S  *
                                                *******************
  
 *** Setting up for NEW gradients in focky
 *** Using FIT density in focky

 Scaled ZORA Orbital Energies, per Irrep and Spin:
 =================================================
                        Occup              E (au)              E (eV)       Diff (eV) with prev. cycle
                        -----      --------------------        ------       --------------------------
 S
               1        2.000     -0.18912163588779E+02      -514.626               4.75E-09
               2        2.000     -0.88042536023933E+00       -23.958               4.99E-09
               3        0.000      0.15917244304958E-01         0.433
               4        0.000      0.47157190212927E+00        12.832
               5        0.000      0.25092163553859E+01        68.279
               6        0.000      0.11901959077277E+02       323.869
               7        0.000      0.52347890775244E+02      1424.459
               8        0.000      0.32159312652146E+03      8750.994
 P
               1        4.000     -0.33172720131057E+00        -9.027               4.92E-09
               2        0.000      0.20052917663188E+00         5.457
               3        0.000      0.16594440945136E+01        45.156
               4        0.000      0.12142335979722E+02       330.410
 D
               1        0.000      0.52623159774356E+00        14.319
               2        0.000      0.24055384910366E+01        65.458
 F
               1        0.000      0.13606224428469E+01        37.024
               2        0.000      0.70188296926901E+01       190.992


 Partially Occupied:
               1 P                -0.33172720131057E+00
  
 HOMO :        2 S                -0.88042536023933E+00
 LUMO :        3 S                 0.15917244304958E-01
  


 Orbital Energies, all Irreps
 ========================================

 Irrep        no.  (spin)   Occup              E (au)                E (eV)
 ---------------------------------------------------------------------------
 S             1             2.00       -0.18912163588779E+02      -514.6262
 S             2             2.00       -0.88042536023933E+00       -23.9576
 P             1             4.00       -0.33172720131057E+00        -9.0268
 S             3             0.00        0.15917244304958E-01         0.4331
 P             2             0.00        0.20052917663188E+00         5.4567
 S             4             0.00        0.47157190212927E+00        12.8321
 D             1             0.00        0.52623159774356E+00        14.3195
 F             1             0.00        0.13606224428469E+01        37.0244
 P             3             0.00        0.16594440945136E+01        45.1558
 D             2             0.00        0.24055384910366E+01        65.4580
 S             5             0.00        0.25092163553859E+01        68.2793
 F             2             0.00        0.70188296926901E+01       190.9921
 S             6             0.00        0.11901959077277E+02       323.8688
 P             4             0.00        0.12142335979722E+02       330.4098
 S             7             0.00        0.52347890775244E+02      1424.4586
 S             8             0.00        0.32159312652146E+03      8750.9942


 All Electron Calculation, thus no Orbital Energies of the Core Orbitals are calculated



 =======================================
 M U L L I K E N   P O P U L A T I O N S
 =======================================
  
 The survey below gives for each atom:
 a) the total charge (Z minus electrons)
 b) the net spin polarization (nr of electrons spin-A minus spin-B)
 c) for each spin the atomic electron valence density (integrated) per L-value.

 Atom              Charge    Spin density          S         P         D         F
 ----              ------    ------------       ------    ------    ------    ------
 1 O               0.0000                       4.0000    4.0000    0.0000    0.0000

 Populations of individual BAS functions
 ----------------------------------------
 1 O            0.0407  0.7707  1.2791 -0.1485  0.7639  1.0393  0.2537  0.0009  0.0450  0.0450
                0.0450  0.4807  0.4807  0.4807  0.6422  0.6422  0.6422  0.1654  0.1654  0.1654
                0.0000  0.0000  0.0000  0.0000  0.0000  0.0000  0.0000  0.0000  0.0000  0.0000
                0.0000  0.0000  0.0000  0.0000  0.0000  0.0000  0.0000  0.0000  0.0000  0.0000
                0.0000  0.0000  0.0000  0.0000  0.0000  0.0000  0.0000  0.0000  0.0000  0.0000
                0.0000  0.0000

 Gross Charges per Atom (Z minus electrons)
 ==========================================
             0.0000
 Net Total:  0.00000000


 Atom-Atom Population Matrix (off-diagonal elements not doubled)
 ===============================================================

     1 :     8.0000



 =============
 Dipole Moment  ***  (Debye)  ***
 =============
  
 Vector   :         0.00000000      0.00000000      0.00000000
 Magnitude:         0.00000000

 This molecular dipole moment is calculated with analytic integration



 =========================================
 Quadrupole Moment (Buckingham convention)  ***  (a.u.)  ***
 =========================================
  
      quad-xx        quad-xy        quad-xz        quad-yy        quad-yz        quad-zz
      0.00000000     0.00000000     0.00000000     0.00000000     0.00000000     0.00000000

 This molecular quadrupole moment is calculated with analytic integration



 ===============================================================================
 Electrostatic potential at the Nuclei due to valence electrons and other nuclei
 ===============================================================================
  
         Atom                  Potential
         ----                  ---------
     1)   O                  22.26490088
 
 
 ========================
 No memory problems found
 ========================
 
 Maximum number of active allocate calls:         476
 
 *******************************************************************************

                             A D F   E X I T
 NORMAL TERMINATION



 =================
 Timing Statistics
 =================
  
 Total Used :                     CPU=        0.19      System=        0.08     Elapsed=        0.27

 Calls  Section                     ( Mean, Percentage )
 ---------------------------------------------------------------------------------------------------
     3  ><      ................      0.00    0.02             0.00    1.16             0.00    0.36
     1  INIT    ................      0.01    3.48             0.00    5.58             0.01    4.13
     1  GEOMET  ................      0.01    4.74             0.05   63.84             0.06   22.60
     1  INPUTA  ................      0.00    0.00             0.00    2.19             0.00    0.66
     1  MAINSY  ................      0.00    0.98             0.01    6.41             0.01    2.61
     1  SYMFIT  ................      0.00    0.16             0.00    0.00             0.00    0.11
     1  CORORT  ................      0.00    0.11             0.00    0.00             0.00    0.08
     1  SYMORB  ................      0.00    0.36             0.00    0.00             0.00    0.25
     1  FITINT  ................      0.00    1.60             0.00    2.03             0.00    1.73
     1  CLSMAT  ................      0.00    0.15             0.00    0.00             0.00    0.10
     1  ORTHON  ................      0.00    0.62             0.00    0.00             0.00    0.44
     1  GENPT   ................      0.01    3.81             0.00    0.00             0.01    2.66
     1  PTBAS   ................      0.00    1.03             0.00    0.00             0.00    0.72
    12  FOCKY   ................      0.01   47.76             0.00   12.63             0.01   37.13
    12  FOCKTR  ................      0.00    1.61             0.00    0.18             0.00    1.18
    12  FOCKNM  ................      0.00    0.17             0.00    0.02             0.00    0.12
    12  SDIIS   ................      0.00    2.04             0.00    0.28             0.00    1.51
    12  EMERGE  ................      0.00   18.49             0.00    1.22             0.00   13.28
     1  COREPS  ................      0.00    2.67             0.00    0.00             0.00    1.87
     1  POPAN   ................      0.00    1.26             0.00    0.00             0.00    0.88
     1  DEBYE   ................      0.00    0.32             0.00    0.00             0.00    0.23
     1  QMPOT   ................      0.00    0.34             0.00    4.46             0.00    1.58
     1  EXIT PROCEDURE .........      0.02    8.28             0.00    0.00             0.02    5.79


 Currently Open Files (EXIT00)
 ====================

 Unit    Access Format  Status   Type       Ident (file)
 -------------------------------------------------------
   3      SEQ    FORM   TRANSP  NORMAL      LOGFILE
                                          ( logfile )


 Buffered I/O statistics
 =======================
 Memory available:                     67108864
 Number of records fitting in memory:     16131
 Input :   0.9% of                         6430  *4k bytes
 Output:   8.3% of                         2767  *4k bytes
 Records from serial files evicted:           0
                    others evicted:           0
 Hash table lookups:      25047 with          0 conflicts (  0.00%)

 ***************************************************************************************************
 (LOGFILE)
 <Jan01-2013> <00:00:00>  DIRAC 2013.01  RunTime: Jan01-2013 00:00:00  Nodes: 1  Procs: 1
 <Jan01-2013> <00:00:00>  NORMAL TERMINATION
 <Jan01-2013> <00:00:01>  END
 <Jan01-2013> <00:00:01>  ADF 2013.01  RunTime: Jan01-2013 00:00:01  Nodes: 1  Procs: 1
 <Jan01-2013> <00:00:01>  Hydrogen (QZ, all electron, 5S 2P 2D)
 <Jan01-2013> <00:00:01>  RunType   : CREATE
 <Jan01-2013> <00:00:01>  Net Charge: 0 (Nuclei minus Electrons)
 <Jan01-2013> <00:00:01>  Symmetry  : ATOM
  Coordinates
    Atom         X           Y           Z   (Angstrom)
    1.H         0.000000    0.000000    0.000000
 <Jan01-2013> <00:00:01>  >>>> CORORT
 <Jan01-2013> <00:00:01>  >>>> FITINT
 <Jan01-2013> <00:00:01>  >>>> CLSMAT
 <Jan01-2013> <00:00:01>  >>>> ORTHON
 <Jan01-2013> <00:00:01>  >>>> GENPT
 <Jan01-2013> <00:00:01>  Acc.Num.Int.=  10.000
 <Jan01-2013> <00:00:01>  Block Length=  44
 <Jan01-2013> <00:00:01>  >>>> PTBAS
 <Jan01-2013> <00:00:01>  >>>> CYCLE
 <Jan01-2013> <00:00:01>    1
 <Jan01-2013> <00:00:01>    2  ErrMat   0.03803841  MaxEl  0.03078708
 <Jan01-2013> <00:00:01>    3  ErrMat   0.00916622  MaxEl -0.00901560
 <Jan01-2013> <00:00:01>    4  ErrMat   0.00035667  MaxEl  0.00031421
 <Jan01-2013> <00:00:01>    5  ErrMat   0.00000962  MaxEl -0.00000892
 <Jan01-2013> <00:00:01>    6  ErrMat   0.00000013  MaxEl  0.00000008
 <Jan01-2013> <00:00:01>    7  ErrMat   0.00000000  MaxEl  0.00000000
 <Jan01-2013> <00:00:01>  SCF converged
 <Jan01-2013> <00:00:01>    8  ErrMat   0.00000000  MaxEl  0.00000000
 <Jan01-2013> <00:00:01>   Solutions with partially occupied orbitals may not be
 <Jan01-2013> <00:00:01>   lowest in energy. You might consider lowering the
 <Jan01-2013> <00:00:01>   symmetry in the input and explicitly specifying integer
 <Jan01-2013> <00:00:01>   occupations. In that case always check that you obtain
 <Jan01-2013> <00:00:01>   an aufbau solution.
 <Jan01-2013> <00:00:01>  >>>> POPAN
 <Jan01-2013> <00:00:01>  >>>> DEBYE
 <Jan01-2013> <00:00:01>  NORMAL TERMINATION
 <Jan01-2013> <00:00:01>  END
 <Jan01-2013> <00:00:01>  DIRAC 2013.01  RunTime: Jan01-2013 00:00:01  Nodes: 1  Procs: 1
 <Jan01-2013> <00:00:01>  NORMAL TERMINATION
 <Jan01-2013> <00:00:01>  END
 <Jan01-2013> <00:00:01>  ADF 2013.01  RunTime: Jan01-2013 00:00:01  Nodes: 1  Procs: 1
 <Jan01-2013> <00:00:01>  Oxygen (QZ, all electron, 8S 4P 2D 2F)
 <Jan01-2013> <00:00:01>  RunType   : CREATE
 <Jan01-2013> <00:00:01>  Net Charge: 0 (Nuclei minus Electrons)
 <Jan01-2013> <00:00:01>  Symmetry  : ATOM
  Coordinates
    Atom         X           Y           Z   (Angstrom)
    1.O         0.000000    0.000000    0.000000
 <Jan01-2013> <00:00:01>  >>>> CORORT
 <Jan01-2013> <00:00:01>  >>>> FITINT
 <Jan01-2013> <00:00:01>  >>>> CLSMAT
 <Jan01-2013> <00:00:01>  >>>> ORTHON
 <Jan01-2013> <00:00:01>  >>>> GENPT
 <Jan01-2013> <00:00:01>  Acc.Num.Int.=  10.000
 <Jan01-2013> <00:00:01>  Block Length=  61
 <Jan01-2013> <00:00:01>  >>>> PTBAS
 <Jan01-2013> <00:00:01>  >>>> CYCLE
 <Jan01-2013> <00:00:01>    1
 <Jan01-2013> <00:00:01>    2  ErrMat   9.74921119  MaxEl  4.13901188
 <Jan01-2013> <00:00:01>    3  ErrMat   3.70162577  MaxEl -2.91656473
 <Jan01-2013> <00:00:01>    4  ErrMat   2.94969141  MaxEl -1.91814780
 <Jan01-2013> <00:00:01>    5  ErrMat   1.88970506  MaxEl -1.07111526
 <Jan01-2013> <00:00:01>    6  ErrMat   0.04645269  MaxEl -0.01876708
 <Jan01-2013> <00:00:01>    7  ErrMat   0.02377734  MaxEl  0.01063637
 <Jan01-2013> <00:00:01>    8  ErrMat   0.00251040  MaxEl -0.00114123
 <Jan01-2013> <00:00:01>    9  ErrMat   0.00000968  MaxEl -0.00000432
 <Jan01-2013> <00:00:01>   10  ErrMat   0.00000018  MaxEl  0.00000007
 <Jan01-2013> <00:00:01>   11  ErrMat   0.00000000  MaxEl  0.00000000
 <Jan01-2013> <00:00:01>  SCF converged
 <Jan01-2013> <00:00:01>   12  ErrMat   0.00000000  MaxEl  0.00000000
 <Jan01-2013> <00:00:01>   Solutions with partially occupied orbitals may not be
 <Jan01-2013> <00:00:01>   lowest in energy. You might consider lowering the
 <Jan01-2013> <00:00:01>   symmetry in the input and explicitly specifying integer
 <Jan01-2013> <00:00:01>   occupations. In that case always check that you obtain
 <Jan01-2013> <00:00:01>   an aufbau solution.
 <Jan01-2013> <00:00:01>  >>>> POPAN
 <Jan01-2013> <00:00:01>  >>>> DEBYE
 <Jan01-2013> <00:00:01>  NORMAL TERMINATION
 <Jan01-2013> <00:00:01>  END
Platform-MPI licensed for SCM.


 Parallel Execution: Process Information
 ==============================================================================
 Rank   Node Name                              NodeID   MyNodeRank  NodeMaster
    0   parca                                     0          0          0
    1   parca                                     0          1         -1
    2   parca                                     0          2         -1
    3   parca                                     0          3         -1
 ==============================================================================


(INPUT FILE)

 TITLE Annealing ASCEC

 Charge {1,0}
 ATOMS
   H    -2.87090900     -0.36143500     -0.10342800
   O    -3.75883400     -0.60495900     -0.57147300
   H    -4.00700200     -1.52854200     -0.38558600
   H    -4.60687100     0.09653200      -0.44211100
 END

 symmetry auto

 RELATIVISTIC Spin-Orbit ZORA

 XC
 GGA PBE
 END

 Geometry
  Frequencies
 end

 SCF
 CONVERGE 1e-6 1e-6
 ITERATION 200
 END

Fragments
H t21.H
O t21.O
End
end input

 *******************************************************************************
 *                                                                             *
 *  -------------------------------------                                      *
 *   Amsterdam Density Functional  (ADF)         2013.01   April 2, 2013       *
 *  -------------------------------------                                      *
 *                                               Build 201304112215            *
 *                                                                             *
 *                                                                             *
 *                              =================                              *
 *                              |               |                              *
 *                              |     A D F     |                              *
 *                              |               |                              *
 *                              =================                              *
 *                                                                             *
 *                                                                             *
 *   Online information and documentation:  http://www.scm.com                 *
 *   E-mail:  support@scm.com   info@scm.com                                   *
 *                                                                             *
 *   Scientific publications using ADF results must be properly referenced     *
 *   See the User Manuals (or the web site) for recommended citations          *
 *   The terms and conditions of the End User License Agreement apply to       *
 *   the use of ADF, http://www.scm.com/Sales/LicAgreement.html                *
 *                                                                             *
 ********************  x86_64_linux_intel / platform_mpi  **********************
 
 Licensed to: Prof. Cacier Hadad / University of Antioquia / Medellin / COLOMBIA
 SCM User ID: u15319
  
 ADF 2013.01  RunTime: Jan01-2013 00:00:02  Nodes: 1  Procs: 4

 Temporary files are created in /home/scratch/adf/kid_0.9sxyIe


Communication costs MPI_COMM_WORLD:      0.960 usec per message,   0.0061 usec per 8-byte item
Communication costs for intra-node:      0.962 usec per message,   0.0071 usec per 8-byte item

 Annealing ASCEC



 ===========================
 A T T A C H E D   F I L E S
 ===========================
  



 ===============================
 M O D E L   P A R A M E T E R S
 ===============================
  
 DENSITY FUNCTIONAL POTENTIAL (scf)
    LDA:                               PW92                                    == Not Default ==
    Gradient Corrections:              PBEc PBEx                               == Not Default ==

 SPIN  (restricted / unrestr.)
    Molecule:                          Restricted                               
    Fragments:                         Restricted                               

 OTHER ASPECTS
    Relativistic Corrections:          Spin-Orbit (ZORA,SAPA)                  == Not Default ==

    Nuclear Charge Density Model:      Point Charge Nuclei                                                                                                                                                                                     
    Core Treatment:                    Frozen Orbital(s)                        

    Hyperfine or Zeeman Interaction:   ---                                      


 Fragment File(s)
 ----------------
 H:
         file : t21.H
         jobid: ADF 2013.01  RunTime: Jan01-2013 00:00:01  Nodes: 1  Procs: 1
         title: Hydrogen (QZ, all electron, 5S 2P 2D)
 O:
         file : t21.O
         jobid: ADF 2013.01  RunTime: Jan01-2013 00:00:01  Nodes: 1  Procs: 1
         title: Oxygen (QZ, all electron, 8S 4P 2D 2F)



                                        ***********************************
                                        *  R U N   T Y P E : FREQUENCIES  *
                                        ***********************************
  



 ===============
 G E O M E T R Y  ***  3D  Molecule  ***
 ===============
  

 ATOMS
 =====                            X Y Z                    CHARGE
                                (Angstrom)             Nucl     +Core       At.Mass
                       --------------------------    ----------------       -------
    1  H              -2.8709   -0.3614   -0.1034      1.00      1.00        1.0078
    2  O              -3.7588   -0.6050   -0.5715      8.00      8.00       15.9949
    3  H              -4.0070   -1.5285   -0.3856      1.00      1.00        1.0078
    4  H              -4.6069    0.0965   -0.4421      1.00      1.00        1.0078


 FRAGMENTS
 =========                                     Atoms in this Fragment     Cart. coord.s (Angstrom)
                                               -------------------------------------------------------
    1  H                                                 1  H           -2.8709   -0.3614   -0.1034
    2  H                                                 3  H           -4.0070   -1.5285   -0.3856
    3  H                                                 4  H           -4.6069    0.0965   -0.4421
    4  O                                                 2  O           -3.7588   -0.6050   -0.5715


 Interatomic Distance Matrix (Angstrom)
 --------------------------------------

   1)     0.000
   2)     1.033   0.000
   3)     1.653   0.974   0.000
   4)     1.827   1.108   1.733   0.000

 Min. Distance =    0.9742
 Max. Distance =    1.8270



 =====================================
 S Y M M E T R Y ,   E L E C T R O N S
 =====================================
  
 Symmetry: NOSYM

 Double Group Irreducible Representations (spinor symmetry)
 -----------------------------------------------------------
 A1/2

 *** In a FREQUENCIES run the point group symmetry is used only in the construction of the Force Matrix.
     Due to possibly symmetry-breaking displacements, the SCF calculations run in 'NOSYM', with only one
     irrep and one subspecies: A.
 (The current implementation does not use C(LIN),D(LIN) symmetries efficiently in Frequencies-runs.
 If specified they will internally be reset to NOSYM)


 Configuration of Valence Electrons
 ==================================
 ( determined in the SCF procedure )

 Total:   10

 Net Charge: 1 (Nuclei minus Electrons)

 Aufbau principle for MO occupations will be applied through SCF cycle no.      30
 Thereafter, the program will assign electrons to MOs that are spatially
[...]
 <Jan01-2013> <00:01:17>  >>>> AMETS
 <Jan01-2013> <00:01:17>  >>>> ENGRAD
  Coordinates in Frequency Displacement 10
    Atom         X           Y           Z   (Angstrom)
    1.H        -2.870909   -0.361435   -0.103428
    2.O        -3.758834   -0.594959   -0.571473
    3.H        -4.007002   -1.528542   -0.385586
    4.H        -4.606871    0.096532   -0.442111
 <Jan01-2013> <00:01:19>  >>>> CORORT
 <Jan01-2013> <00:01:19>  >>>> FITINT
 <Jan01-2013> <00:01:19>  >>>> CLSMAT
 <Jan01-2013> <00:01:19>  >>>> ORTHON
 <Jan01-2013> <00:01:19>  >>>> GENPT
 <Jan01-2013> <00:01:19>  Block Length= 128
 <Jan01-2013> <00:01:19>  >>>> PTBAS
 <Jan01-2013> <00:01:20>  >>>> CYCLE
 <Jan01-2013> <00:01:20>    1
 <Jan01-2013> <00:01:20>    2  ErrMat   0.00071902  MaxEl -0.00016797
 <Jan01-2013> <00:01:21>    3  ErrMat   0.00034329  MaxEl -0.00008293
 <Jan01-2013> <00:01:21>    4  ErrMat   0.00009195  MaxEl  0.00002084
 <Jan01-2013> <00:01:21>    5  ErrMat   0.00000615  MaxEl  0.00000136
 <Jan01-2013> <00:01:21>    6  ErrMat   0.00000075  MaxEl  0.00000020
 <Jan01-2013> <00:01:21>  SCF converged
 <Jan01-2013> <00:01:22>    7  ErrMat   0.00000012  MaxEl  0.00000003
 <Jan01-2013> <00:01:22>  >>>> TOTEN
 <Jan01-2013> <00:01:22>  >>>> POPAN
 <Jan01-2013> <00:01:22>  >>>> DEBYE
 <Jan01-2013> <00:01:22>  >>>> AMETS
 <Jan01-2013> <00:01:22>  >>>> ENGRAD
  Coordinates in Frequency Displacement 11
    Atom         X           Y           Z   (Angstrom)
    1.H        -2.870909   -0.361435   -0.103428
    2.O        -3.758834   -0.604959   -0.581473
    3.H        -4.007002   -1.528542   -0.385586
    4.H        -4.606871    0.096532   -0.442111
 <Jan01-2013> <00:01:26>  >>>> CORORT
 <Jan01-2013> <00:01:26>  >>>> FITINT
 <Jan01-2013> <00:01:26>  >>>> CLSMAT
 <Jan01-2013> <00:01:26>  >>>> ORTHON
 <Jan01-2013> <00:01:26>  >>>> GENPT
 <Jan01-2013> <00:01:26>  Block Length= 128
 <Jan01-2013> <00:01:26>  >>>> PTBAS
 <Jan01-2013> <00:01:27>  >>>> CYCLE
 <Jan01-2013> <00:01:27>    1
 <Jan01-2013> <00:01:27>    2  ErrMat   0.03435240  MaxEl  0.00998328
 <Jan01-2013> <00:01:28>    3  ErrMat   0.02119503  MaxEl  0.00675089
 <Jan01-2013> <00:01:28>    4  ErrMat   0.01241362  MaxEl  0.00261727
 <Jan01-2013> <00:01:28>    5  ErrMat   0.00053309  MaxEl -0.00011504
 <Jan01-2013> <00:01:28>    6  ErrMat   0.00005962  MaxEl -0.00001539
 <Jan01-2013> <00:01:29>    7  ErrMat   0.00001309  MaxEl  0.00000311
 <Jan01-2013> <00:01:29>    8  ErrMat   0.00000073  MaxEl  0.00000018
 <Jan01-2013> <00:01:29>  SCF converged
 <Jan01-2013> <00:01:29>    9  ErrMat   0.00000010  MaxEl -0.00000002
 <Jan01-2013> <00:01:29>  >>>> TOTEN
 <Jan01-2013> <00:01:30>  >>>> POPAN
 <Jan01-2013> <00:01:30>  >>>> DEBYE
 <Jan01-2013> <00:01:30>  >>>> AMETS
 <Jan01-2013> <00:01:30>  >>>> ENGRAD
  Coordinates in Frequency Displacement 12
    Atom         X           Y           Z   (Angstrom)
    1.H        -2.870909   -0.361435   -0.103428
    2.O        -3.758834   -0.604959   -0.561473
    3.H        -4.007002   -1.528542   -0.385586
    4.H        -4.606871    0.096532   -0.442111
 <Jan01-2013> <00:01:32>  >>>> CORORT
 <Jan01-2013> <00:01:32>  >>>> FITINT
 <Jan01-2013> <00:01:32>  >>>> CLSMAT
 <Jan01-2013> <00:01:32>  >>>> ORTHON
 <Jan01-2013> <00:01:32>  >>>> GENPT
 <Jan01-2013> <00:01:32>  Block Length= 128
 <Jan01-2013> <00:01:32>  >>>> PTBAS
 <Jan01-2013> <00:01:33>  >>>> CYCLE
 <Jan01-2013> <00:01:33>    1
 <Jan01-2013> <00:01:33>    2  ErrMat   0.00013097  MaxEl -0.00004302
 <Jan01-2013> <00:01:33>    3  ErrMat   0.00008794  MaxEl -0.00002963
 <Jan01-2013> <00:01:34>    4  ErrMat   0.00004898  MaxEl -0.00001101
 <Jan01-2013> <00:01:34>    5  ErrMat   0.00000173  MaxEl  0.00000032
 <Jan01-2013> <00:01:34>  SCF converged
 <Jan01-2013> <00:01:34>    6  ErrMat   0.00000017  MaxEl -0.00000004
 <Jan01-2013> <00:01:34>  >>>> TOTEN
 <Jan01-2013> <00:01:35>  >>>> POPAN
 <Jan01-2013> <00:01:35>  >>>> DEBYE
 <Jan01-2013> <00:01:35>  >>>> AMETS
 <Jan01-2013> <00:01:35>  >>>> ENGRAD
  Coordinates in Frequency Displacement 13
    Atom         X           Y           Z   (Angstrom)
    1.H        -2.870909   -0.361435   -0.103428
    2.O        -3.758834   -0.604959   -0.571473
    3.H        -4.017002   -1.528542   -0.385586
    4.H        -4.606871    0.096532   -0.442111
 <Jan01-2013> <00:01:37>  >>>> CORORT
 <Jan01-2013> <00:01:37>  >>>> FITINT
 <Jan01-2013> <00:01:37>  >>>> CLSMAT
 <Jan01-2013> <00:01:37>  >>>> ORTHON
 <Jan01-2013> <00:01:37>  >>>> GENPT
 <Jan01-2013> <00:01:37>  Block Length= 128
 <Jan01-2013> <00:01:37>  >>>> PTBAS
 <Jan01-2013> <00:01:38>  >>>> CYCLE
 <Jan01-2013> <00:01:38>    1
 <Jan01-2013> <00:01:38>    2  ErrMat   0.01300904  MaxEl -0.00323964
 <Jan01-2013> <00:01:38>    3  ErrMat   0.00827284  MaxEl -0.00214865
 <Jan01-2013> <00:01:39>    4  ErrMat   0.00481657  MaxEl -0.00107171
 <Jan01-2013> <00:01:39>    5  ErrMat   0.00017146  MaxEl -0.00004200
 <Jan01-2013> <00:01:39>    6  ErrMat   0.00001759  MaxEl  0.00000480
 <Jan01-2013> <00:01:40>    7  ErrMat   0.00000423  MaxEl -0.00000109
 <Jan01-2013> <00:01:40>    8  ErrMat   0.00000056  MaxEl  0.00000016
 <Jan01-2013> <00:01:40>  SCF converged
 <Jan01-2013> <00:01:40>    9  ErrMat   0.00000006  MaxEl  0.00000001
 <Jan01-2013> <00:01:40>  >>>> TOTEN
 <Jan01-2013> <00:01:41>  >>>> POPAN
 <Jan01-2013> <00:01:41>  >>>> DEBYE
 <Jan01-2013> <00:01:41>  >>>> AMETS
 <Jan01-2013> <00:01:41>  >>>> ENGRAD
  Coordinates in Frequency Displacement 14
    Atom         X           Y           Z   (Angstrom)
    1.H        -2.870909   -0.361435   -0.103428
    2.O        -3.758834   -0.604959   -0.571473
    3.H        -3.997002   -1.528542   -0.385586
    4.H        -4.606871    0.096532   -0.442111
 <Jan01-2013> <00:01:43>  >>>> CORORT
 <Jan01-2013> <00:01:43>  >>>> FITINT
 <Jan01-2013> <00:01:43>  >>>> CLSMAT
 <Jan01-2013> <00:01:43>  >>>> ORTHON
 <Jan01-2013> <00:01:43>  >>>> GENPT
 <Jan01-2013> <00:01:43>  Block Length= 128
 <Jan01-2013> <00:01:43>  >>>> PTBAS
 <Jan01-2013> <00:01:44>  >>>> CYCLE
 <Jan01-2013> <00:01:44>    1
 <Jan01-2013> <00:01:44>    2  ErrMat   0.00005376  MaxEl -0.00001069
 <Jan01-2013> <00:01:44>    3  ErrMat   0.00003483  MaxEl -0.00000723
 <Jan01-2013> <00:01:45>    4  ErrMat   0.00002124  MaxEl -0.00000486
 <Jan01-2013> <00:01:45>    5  ErrMat   0.00000124  MaxEl  0.00000026
 <Jan01-2013> <00:01:45>  SCF converged
 <Jan01-2013> <00:01:45>    6  ErrMat   0.00000017  MaxEl  0.00000004
 <Jan01-2013> <00:01:45>  >>>> TOTEN
 <Jan01-2013> <00:01:46>  >>>> POPAN
 <Jan01-2013> <00:01:46>  >>>> DEBYE
 <Jan01-2013> <00:01:46>  >>>> AMETS
 <Jan01-2013> <00:01:46>  >>>> ENGRAD
  Coordinates in Frequency Displacement 15
    Atom         X           Y           Z   (Angstrom)
    1.H        -2.870909   -0.361435   -0.103428
    2.O        -3.758834   -0.604959   -0.571473
    3.H        -4.007002   -1.538542   -0.385586
    4.H        -4.606871    0.096532   -0.442111
 <Jan01-2013> <00:01:48>  >>>> CORORT
 <Jan01-2013> <00:01:48>  >>>> FITINT
 <Jan01-2013> <00:01:48>  >>>> CLSMAT
 <Jan01-2013> <00:01:48>  >>>> ORTHON
 <Jan01-2013> <00:01:48>  >>>> GENPT
 <Jan01-2013> <00:01:48>  Block Length= 128
 <Jan01-2013> <00:01:48>  >>>> PTBAS
 <Jan01-2013> <00:01:49>  >>>> CYCLE
 <Jan01-2013> <00:01:49>    1
 <Jan01-2013> <00:01:49>    2  ErrMat   0.02050885  MaxEl  0.00607108
 <Jan01-2013> <00:01:50>    3  ErrMat   0.01057166  MaxEl  0.00320771
 <Jan01-2013> <00:01:51>    4  ErrMat   0.00384679  MaxEl  0.00087757
 <Jan01-2013> <00:01:52>    5  ErrMat   0.00032287  MaxEl -0.00007214
 <Jan01-2013> <00:01:52>    6  ErrMat   0.00002504  MaxEl  0.00000662
 <Jan01-2013> <00:01:52>    7  ErrMat   0.00000544  MaxEl -0.00000116
 <Jan01-2013> <00:01:53>    8  ErrMat   0.00000121  MaxEl -0.00000025
 <Jan01-2013> <00:01:53>  SCF converged
 <Jan01-2013> <00:01:53>    9  ErrMat   0.00000006  MaxEl  0.00000001
 <Jan01-2013> <00:01:53>  >>>> TOTEN
 <Jan01-2013> <00:01:54>  >>>> POPAN
 <Jan01-2013> <00:01:54>  >>>> DEBYE
 <Jan01-2013> <00:01:54>  >>>> AMETS
 <Jan01-2013> <00:01:54>  >>>> ENGRAD
  Coordinates in Frequency Displacement 16
    Atom         X           Y           Z   (Angstrom)
    1.H        -2.870909   -0.361435   -0.103428
    2.O        -3.758834   -0.604959   -0.571473
    3.H        -4.007002   -1.518542   -0.385586
    4.H        -4.606871    0.096532   -0.442111
 <Jan01-2013> <00:01:55>  >>>> CORORT
 <Jan01-2013> <00:01:55>  >>>> FITINT
 <Jan01-2013> <00:01:55>  >>>> CLSMAT
 <Jan01-2013> <00:01:55>  >>>> ORTHON
 <Jan01-2013> <00:01:55>  >>>> GENPT
 <Jan01-2013> <00:01:55>  Block Length= 128
 <Jan01-2013> <00:01:56>  >>>> PTBAS
 <Jan01-2013> <00:01:56>  >>>> CYCLE
 <Jan01-2013> <00:01:56>    1
 <Jan01-2013> <00:01:56>    2  ErrMat   0.00039419  MaxEl -0.00010385
 <Jan01-2013> <00:01:57>    3  ErrMat   0.00018092  MaxEl -0.00005075
 <Jan01-2013> <00:01:57>    4  ErrMat   0.00003007  MaxEl -0.00000589
 <Jan01-2013> <00:01:57>    5  ErrMat   0.00000430  MaxEl  0.00000111
 <Jan01-2013> <00:01:58>    6  ErrMat   0.00000039  MaxEl  0.00000011
 <Jan01-2013> <00:01:58>  SCF converged
 <Jan01-2013> <00:01:59>    7  ErrMat   0.00000007  MaxEl -0.00000002
 <Jan01-2013> <00:01:59>  >>>> TOTEN
 <Jan01-2013> <00:02:01>  >>>> POPAN
 <Jan01-2013> <00:02:01>  >>>> DEBYE
 <Jan01-2013> <00:02:01>  >>>> AMETS
 <Jan01-2013> <00:02:01>  >>>> ENGRAD
  Coordinates in Frequency Displacement 17
    Atom         X           Y           Z   (Angstrom)
    1.H        -2.870909   -0.361435   -0.103428
    2.O        -3.758834   -0.604959   -0.571473
    3.H        -4.007002   -1.528542   -0.395586
    4.H        -4.606871    0.096532   -0.442111
 <Jan01-2013> <00:02:02>  >>>> CORORT
 <Jan01-2013> <00:02:02>  >>>> FITINT
 <Jan01-2013> <00:02:02>  >>>> CLSMAT
 <Jan01-2013> <00:02:03>  >>>> ORTHON
 <Jan01-2013> <00:02:03>  >>>> GENPT
 <Jan01-2013> <00:02:03>  Block Length= 128
 <Jan01-2013> <00:02:03>  >>>> PTBAS
 <Jan01-2013> <00:02:03>  >>>> CYCLE
 <Jan01-2013> <00:02:04>    1
 <Jan01-2013> <00:02:04>    2  ErrMat   0.01247475  MaxEl -0.00388579
 <Jan01-2013> <00:02:04>    3  ErrMat   0.00815284  MaxEl -0.00263503
 <Jan01-2013> <00:02:04>    4  ErrMat   0.00494084  MaxEl -0.00109762
 <Jan01-2013> <00:02:05>    5  ErrMat   0.00020630  MaxEl  0.00004621
 <Jan01-2013> <00:02:05>    6  ErrMat   0.00002274  MaxEl  0.00000553
 <Jan01-2013> <00:02:05>    7  ErrMat   0.00000540  MaxEl -0.00000141
 <Jan01-2013> <00:02:06>    8  ErrMat   0.00000031  MaxEl  0.00000009
 <Jan01-2013> <00:02:06>  SCF converged
 <Jan01-2013> <00:02:07>    9  ErrMat   0.00000004  MaxEl -0.00000001
 <Jan01-2013> <00:02:07>  >>>> TOTEN
 <Jan01-2013> <00:02:09>  >>>> POPAN
 <Jan01-2013> <00:02:09>  >>>> DEBYE
 <Jan01-2013> <00:02:09>  >>>> AMETS
 <Jan01-2013> <00:02:09>  >>>> ENGRAD
  Coordinates in Frequency Displacement 18
    Atom         X           Y           Z   (Angstrom)
    1.H        -2.870909   -0.361435   -0.103428
    2.O        -3.758834   -0.604959   -0.571473
    3.H        -4.007002   -1.528542   -0.375586
    4.H        -4.606871    0.096532   -0.442111
 <Jan01-2013> <00:02:10>  >>>> CORORT
 <Jan01-2013> <00:02:10>  >>>> FITINT
 <Jan01-2013> <00:02:11>  >>>> CLSMAT
 <Jan01-2013> <00:02:11>  >>>> ORTHON
 <Jan01-2013> <00:02:11>  >>>> GENPT
 <Jan01-2013> <00:02:11>  Block Length= 128
 <Jan01-2013> <00:02:11>  >>>> PTBAS
 <Jan01-2013> <00:02:11>  >>>> CYCLE
 <Jan01-2013> <00:02:11>    1
 <Jan01-2013> <00:02:12>    2  ErrMat   0.00003002  MaxEl  0.00000706
 <Jan01-2013> <00:02:12>    3  ErrMat   0.00001908  MaxEl  0.00000388
 <Jan01-2013> <00:02:12>    4  ErrMat   0.00001080  MaxEl  0.00000239
 <Jan01-2013> <00:02:13>    5  ErrMat   0.00000117  MaxEl -0.00000026
 <Jan01-2013> <00:02:13>  SCF converged
 <Jan01-2013> <00:02:14>    6  ErrMat   0.00000009  MaxEl  0.00000002
 <Jan01-2013> <00:02:14>  >>>> TOTEN
 <Jan01-2013> <00:02:16>  >>>> POPAN
 <Jan01-2013> <00:02:16>  >>>> DEBYE
 <Jan01-2013> <00:02:16>  >>>> AMETS
 <Jan01-2013> <00:02:16>  >>>> ENGRAD
  Coordinates in Frequency Displacement 19
    Atom         X           Y           Z   (Angstrom)
    1.H        -2.870909   -0.361435   -0.103428
    2.O        -3.758834   -0.604959   -0.571473
    3.H        -4.007002   -1.528542   -0.385586
    4.H        -4.616871    0.096532   -0.442111
 <Jan01-2013> <00:02:17>  >>>> CORORT
 <Jan01-2013> <00:02:17>  >>>> FITINT
 <Jan01-2013> <00:02:17>  >>>> CLSMAT
 <Jan01-2013> <00:02:18>  >>>> ORTHON
 <Jan01-2013> <00:02:18>  >>>> GENPT
 <Jan01-2013> <00:02:18>  Block Length= 128
 <Jan01-2013> <00:02:18>  >>>> PTBAS
 <Jan01-2013> <00:02:18>  >>>> CYCLE
 <Jan01-2013> <00:02:18>    1
 <Jan01-2013> <00:02:19>    2  ErrMat   0.01524266  MaxEl -0.00366838
 <Jan01-2013> <00:02:19>    3  ErrMat   0.00770471  MaxEl -0.00194065
 <Jan01-2013> <00:02:19>    4  ErrMat   0.00270057  MaxEl -0.00060982
 <Jan01-2013> <00:02:19>    5  ErrMat   0.00024881  MaxEl -0.00004795
 <Jan01-2013> <00:02:20>    6  ErrMat   0.00001791  MaxEl  0.00000512
 <Jan01-2013> <00:02:20>    7  ErrMat   0.00000312  MaxEl  0.00000064
 <Jan01-2013> <00:02:21>  SCF converged
 <Jan01-2013> <00:02:21>    8  ErrMat   0.00000068  MaxEl -0.00000014
 <Jan01-2013> <00:02:21>  >>>> TOTEN
 <Jan01-2013> <00:02:23>  >>>> POPAN
 <Jan01-2013> <00:02:23>  >>>> DEBYE
 <Jan01-2013> <00:02:23>  >>>> AMETS
 <Jan01-2013> <00:02:23>  >>>> ENGRAD
  Coordinates in Frequency Displacement 20
    Atom         X           Y           Z   (Angstrom)
    1.H        -2.870909   -0.361435   -0.103428
    2.O        -3.758834   -0.604959   -0.571473
    3.H        -4.007002   -1.528542   -0.385586
    4.H        -4.596871    0.096532   -0.442111
 <Jan01-2013> <00:02:25>  >>>> CORORT
 <Jan01-2013> <00:02:25>  >>>> FITINT
 <Jan01-2013> <00:02:25>  >>>> CLSMAT
 <Jan01-2013> <00:02:25>  >>>> ORTHON
 <Jan01-2013> <00:02:25>  >>>> GENPT
 <Jan01-2013> <00:02:25>  Block Length= 128
 <Jan01-2013> <00:02:25>  >>>> PTBAS
 <Jan01-2013> <00:02:26>  >>>> CYCLE
 <Jan01-2013> <00:02:26>    1
 <Jan01-2013> <00:02:26>    2  ErrMat   0.00058968  MaxEl  0.00013684
 <Jan01-2013> <00:02:26>    3  ErrMat   0.00028944  MaxEl  0.00007099
 <Jan01-2013> <00:02:27>    4  ErrMat   0.00008951  MaxEl  0.00001973
 <Jan01-2013> <00:02:27>    5  ErrMat   0.00000784  MaxEl  0.00000150
 <Jan01-2013> <00:02:27>    6  ErrMat   0.00000062  MaxEl -0.00000017
 <Jan01-2013> <00:02:28>  SCF converged
 <Jan01-2013> <00:02:28>    7  ErrMat   0.00000011  MaxEl -0.00000002
 <Jan01-2013> <00:02:28>  >>>> TOTEN
 <Jan01-2013> <00:02:29>  >>>> POPAN
 <Jan01-2013> <00:02:29>  >>>> DEBYE
 <Jan01-2013> <00:02:29>  >>>> AMETS
 <Jan01-2013> <00:02:29>  >>>> ENGRAD
  Coordinates in Frequency Displacement 21
    Atom         X           Y           Z   (Angstrom)
    1.H        -2.870909   -0.361435   -0.103428
    2.O        -3.758834   -0.604959   -0.571473
    3.H        -4.007002   -1.528542   -0.385586
    4.H        -4.606871    0.086532   -0.442111
 <Jan01-2013> <00:02:31>  >>>> CORORT
 <Jan01-2013> <00:02:32>  >>>> FITINT
 <Jan01-2013> <00:02:32>  >>>> CLSMAT
 <Jan01-2013> <00:02:32>  >>>> ORTHON
 <Jan01-2013> <00:02:32>  >>>> GENPT
 <Jan01-2013> <00:02:32>  Block Length= 128
 <Jan01-2013> <00:02:32>  >>>> PTBAS
 <Jan01-2013> <00:02:32>  >>>> CYCLE
 <Jan01-2013> <00:02:33>    1
 <Jan01-2013> <00:02:33>    2  ErrMat   0.01301205  MaxEl -0.00335696
 <Jan01-2013> <00:02:34>    3  ErrMat   0.00710072  MaxEl -0.00179935
 <Jan01-2013> <00:02:35>    4  ErrMat   0.00318270  MaxEl -0.00084255
 <Jan01-2013> <00:02:36>    5  ErrMat   0.00017631  MaxEl  0.00003432
 <Jan01-2013> <00:02:36>    6  ErrMat   0.00001868  MaxEl  0.00000541
 <Jan01-2013> <00:02:36>    7  ErrMat   0.00000330  MaxEl  0.00000089
 <Jan01-2013> <00:02:36>  SCF converged
 <Jan01-2013> <00:02:36>    8  ErrMat   0.00000072  MaxEl -0.00000015
 <Jan01-2013> <00:02:36>  >>>> TOTEN
 <Jan01-2013> <00:02:37>  >>>> POPAN
 <Jan01-2013> <00:02:37>  >>>> DEBYE
 <Jan01-2013> <00:02:37>  >>>> AMETS
 <Jan01-2013> <00:02:37>  >>>> ENGRAD
  Coordinates in Frequency Displacement 22
    Atom         X           Y           Z   (Angstrom)
    1.H        -2.870909   -0.361435   -0.103428
    2.O        -3.758834   -0.604959   -0.571473
    3.H        -4.007002   -1.528542   -0.385586
    4.H        -4.606871    0.106532   -0.442111
 <Jan01-2013> <00:02:39>  >>>> CORORT
 <Jan01-2013> <00:02:39>  >>>> FITINT
 <Jan01-2013> <00:02:39>  >>>> CLSMAT
 <Jan01-2013> <00:02:39>  >>>> ORTHON
 <Jan01-2013> <00:02:39>  >>>> GENPT
 <Jan01-2013> <00:02:40>  Block Length= 128
 <Jan01-2013> <00:02:40>  >>>> PTBAS
 <Jan01-2013> <00:02:40>  >>>> CYCLE
 <Jan01-2013> <00:02:40>    1
 <Jan01-2013> <00:02:40>    2  ErrMat   0.00041118  MaxEl -0.00010225
 <Jan01-2013> <00:02:41>    3  ErrMat   0.00021312  MaxEl -0.00005305
 <Jan01-2013> <00:02:41>    4  ErrMat   0.00008274  MaxEl -0.00002138
 <Jan01-2013> <00:02:42>    5  ErrMat   0.00000484  MaxEl  0.00000094
 <Jan01-2013> <00:02:42>  SCF converged
 <Jan01-2013> <00:02:43>    6  ErrMat   0.00000046  MaxEl  0.00000013
 <Jan01-2013> <00:02:43>  >>>> TOTEN
 <Jan01-2013> <00:02:44>  >>>> POPAN
 <Jan01-2013> <00:02:44>  >>>> DEBYE
 <Jan01-2013> <00:02:44>  >>>> AMETS
 <Jan01-2013> <00:02:44>  >>>> ENGRAD
  Coordinates in Frequency Displacement 23
    Atom         X           Y           Z   (Angstrom)
    1.H        -2.870909   -0.361435   -0.103428
    2.O        -3.758834   -0.604959   -0.571473
    3.H        -4.007002   -1.528542   -0.385586
    4.H        -4.606871    0.096532   -0.452111
 <Jan01-2013> <00:02:46>  >>>> CORORT
 <Jan01-2013> <00:02:46>  >>>> FITINT
 <Jan01-2013> <00:02:46>  >>>> CLSMAT
 <Jan01-2013> <00:02:46>  >>>> ORTHON
 <Jan01-2013> <00:02:46>  >>>> GENPT
 <Jan01-2013> <00:02:46>  Block Length= 128
 <Jan01-2013> <00:02:46>  >>>> PTBAS
 <Jan01-2013> <00:02:47>  >>>> CYCLE
 <Jan01-2013> <00:02:47>    1
 <Jan01-2013> <00:02:48>    2  ErrMat   0.00910287  MaxEl -0.00291674
 <Jan01-2013> <00:02:49>    3  ErrMat   0.00606685  MaxEl -0.00197487
 <Jan01-2013> <00:02:50>    4  ErrMat   0.00343521  MaxEl -0.00077268
 <Jan01-2013> <00:02:50>    5  ErrMat   0.00018505  MaxEl  0.00004006
 <Jan01-2013> <00:02:50>    6  ErrMat   0.00002038  MaxEl  0.00000449
 <Jan01-2013> <00:02:50>    7  ErrMat   0.00000485  MaxEl -0.00000121
 <Jan01-2013> <00:02:51>    8  ErrMat   0.00000039  MaxEl  0.00000010
 <Jan01-2013> <00:02:51>  SCF converged
 <Jan01-2013> <00:02:51>    9  ErrMat   0.00000003  MaxEl -0.00000001
 <Jan01-2013> <00:02:51>  >>>> TOTEN
 <Jan01-2013> <00:02:52>  >>>> POPAN
 <Jan01-2013> <00:02:52>  >>>> DEBYE
 <Jan01-2013> <00:02:52>  >>>> AMETS
 <Jan01-2013> <00:02:52>  >>>> ENGRAD
  Coordinates in Frequency Displacement 24
    Atom         X           Y           Z   (Angstrom)
    1.H        -2.870909   -0.361435   -0.103428
    2.O        -3.758834   -0.604959   -0.571473
    3.H        -4.007002   -1.528542   -0.385586
    4.H        -4.606871    0.096532   -0.432111
 <Jan01-2013> <00:02:53>  >>>> CORORT
 <Jan01-2013> <00:02:53>  >>>> FITINT
 <Jan01-2013> <00:02:53>  >>>> CLSMAT
 <Jan01-2013> <00:02:53>  >>>> ORTHON
 <Jan01-2013> <00:02:53>  >>>> GENPT
 <Jan01-2013> <00:02:53>  Block Length= 128
 <Jan01-2013> <00:02:53>  >>>> PTBAS
 <Jan01-2013> <00:02:54>  >>>> CYCLE
 <Jan01-2013> <00:02:54>    1
 <Jan01-2013> <00:02:54>    2  ErrMat   0.00004064  MaxEl -0.00001284
 <Jan01-2013> <00:02:55>    3  ErrMat   0.00002723  MaxEl -0.00000878
 <Jan01-2013> <00:02:55>    4  ErrMat   0.00001338  MaxEl  0.00000304
 <Jan01-2013> <00:02:56>    5  ErrMat   0.00000073  MaxEl -0.00000013
 <Jan01-2013> <00:02:56>  SCF converged
 <Jan01-2013> <00:02:56>    6  ErrMat   0.00000015  MaxEl  0.00000004
 <Jan01-2013> <00:02:57>  >>>> TOTEN
 <Jan01-2013> <00:02:58>  >>>> POPAN
 <Jan01-2013> <00:02:58>  >>>> DEBYE
 <Jan01-2013> <00:02:58>  >>>> AMETS
 <Jan01-2013> <00:02:58>  >>>> ENGRAD
 <Jan01-2013> <00:03:00>  Force Constants computed
 <Jan01-2013> <00:03:00>  There were warnings during force constant computation. Please check the output file.
 <Jan01-2013> <00:03:00>  NORMAL TERMINATION
 <Jan01-2013> <00:03:00>  END
