
 *******************************************************************************
 *                                                                             *
 *  -------------------------------------                                      *
 *   Amsterdam Density Functional  (ADF)         2013.01   April 2, 2013       *
 *  -------------------------------------                                      *
 *                                               Build 201304112106            *
 *                                                                             *
 *                                                                             *
 *                            =====================                            *
 *                            |                   |                            *
 *                            |     D I R A C     |                            *
 *                            |                   |                            *
 *                            =====================                            *
 *                                                                             *
 *                                                                             *
 *   Online information and documentation:  http://www.scm.com                 *
 *   E-mail:  support@scm.com   info@scm.com                                   *
 *                                                                             *
 *   Scientific publications using ADF results must be properly referenced     *
 *   See the User Manuals (or the web site) for recommended citations          *
 *   The terms and conditions of the End User License Agreement apply to       *
 *   the use of ADF, http://www.scm.com/Sales/LicAgreement.html                *
 *                                                                             *
 ****************************  x86_64_linux_intel  *****************************
 
 Licensed to: Prof. Cacier Hadad / University of Antioquia / Medellin / COLOMBIA
 SCM User ID: u15319
  
 DIRAC 2013.01  RunTime: Jan01-2013 00:00:00  Nodes: 1  Procs: 1

 Temporary files are created in /tmp/kid_0.y08Pnc

1
 HYDROGEN ATOM RELATIVISTIC, Point Nuc, A and c from libtc   
 N J RN H ZN XION ANUC CLIGHT
 5000    1100.00000000197.36710137  1.00000000  0.00000000    1.007825  0.1370360E+03
  PH   PHI     EPS        DEL        DELRVR
  0.30  0.30     2500.00  0.00001000  0.00001000
 IDIRC  NC1  NDEBU NPRIN  IPUN IRCOR IWCOR
   1   300     0     0     0     0     0
   XALPHA      XLATTER      RNUC
  0.70000000  0.00000000  0.00000000 Point Charge
   XN   XL   XJ      XE          XZ      XDELL
  1.0  0.0  0.5      -1.000       1.000     0.00000
 ICORP=  0  NPCL=  0  DEMP=0.00  PEPS=0.000000
 R(1)=  0.1000000E-08 D=  0.1005080E+01 RNUC=  0.0000000E+00
 converged at cycle   32  DENSITY AVERAGING    0.2400
  MAXIMUM ERROR IN R.V(R) IS   0.79874357E-05
 Q,EY,EV,EZ,ESUM,ETOT,RHO  0.100000E+01 -0.266614E+00 -0.619969E+00 -0.910779E+00 -0.203940E+00 -0.415998E+00  0.337036E-17


 DIRAC CALCULATION
1                    HYDROGEN ATOM RELATIVISTIC, Point Nuc, A and c from libtc


 EXCHANGE COEFFICIENT=  0.7000000           TAIL CORRECTION=  0.           NUCLEAR RADIUS=  0.000E+00
0                       ORBITAL    N    L    J     ELECTRONS     EIGENVALUE                DELTA OF EIGENV.

                          1S1/2  1.0  0.0  0.5     1.000       -0.2039397E+00                 0.2720093E-06


                                        NUCLEAR CHARGE=    1.000000
                            INTEGRAL OF CHARGE DENSITY=    1.000000
                           SUM OF THE ORBITAL ENERGIES=     -0.2039
                                          TOTAL ENERGY=     -0.4160
                                        KINETIC ENERGY=      0.4160
                             NUCLEAR ATTRACTION ENERGY=     -0.9108
                             ELECTRON REPULSION ENERGY=      0.2787
                                       EXCHANGE ENERGY=     -0.2000

 *******************************************************************************

                             D I R A C   E X I T
 NORMAL TERMINATION



 =================
 Timing Statistics
 =================
  
 Total Used :                     CPU=        0.12      System=        0.02     Elapsed=        0.40

 Calls  Section                     ( Mean, Percentage )
 ---------------------------------------------------------------------------------------------------
     2  ><      ................      0.00    0.01             0.00    0.03             0.00    0.00
     1  EXIT PROCEDURE .........      0.12   99.99             0.02   99.97             0.40  100.00


 Currently Open Files (EXIT00)
 ====================

 Unit    Access Format  Status   Type       Ident (file)
 -------------------------------------------------------
   3      SEQ    FORM   TRANSP  NORMAL      LOGFILE
                                          ( logfile )


 Buffered I/O statistics
 =======================
 Memory available:                     67108864
 Number of records fitting in memory:     16131
 Input : 100.0% of                            0  *4k bytes
 Output: 100.0% of                            0  *4k bytes
 Records from serial files evicted:           0
                    others evicted:           0
 Hash table lookups:          0 with          0 conflicts (100.00%)
(INPUT FILE)
Create H   file=/home/andyzapa/adf2013.01/atomicdata/ZORA/QZ4P/H
 XC
 GGA PBE
End
relativistic ZORA
Corepotentials t12.rel
End Input

 *******************************************************************************
 *                                                                             *
 *  -------------------------------------                                      *
 *   Amsterdam Density Functional  (ADF)         2013.01   April 2, 2013       *
 *  -------------------------------------                                      *
 *                                               Build 201304112215            *
 *                                                                             *
 *                                                                             *
 *                              =================                              *
 *                              |               |                              *
 *                              |     A D F     |                              *
 *                              |               |                              *
 *                              =================                              *
 *                                                                             *
 *                                                                             *
 *   Online information and documentation:  http://www.scm.com                 *
 *   E-mail:  support@scm.com   info@scm.com                                   *
 *                                                                             *
 *   Scientific publications using ADF results must be properly referenced     *
 *   See the User Manuals (or the web site) for recommended citations          *
 *   The terms and conditions of the End User License Agreement apply to       *
 *   the use of ADF, http://www.scm.com/Sales/LicAgreement.html                *
 *                                                                             *
 ********************  x86_64_linux_intel / platform_mpi  **********************
 
 Licensed to: Prof. Cacier Hadad / University of Antioquia / Medellin / COLOMBIA
 SCM User ID: u15319
  
 ADF 2013.01  RunTime: Jan01-2013 00:00:01  Nodes: 1  Procs: 1

 Temporary files are created in /tmp/kid_0.hH8ACG

 Hydrogen (QZ, all electron, 5S 2P 2D)



 ===========================
 A T T A C H E D   F I L E S
 ===========================
  
 CREATE - Data File:    /home/andyzapa/adf2013.01/atomicdata/ZORA/QZ4P/H
                        Hydrogen (QZ, all electron, 5S 2P 2D)
 Core Potentials:
         file : t12.rel



 ===============================
 M O D E L   P A R A M E T E R S
 ===============================
  
 DENSITY FUNCTIONAL POTENTIAL (scf)
    LDA:                               PW92                                    == Not Default ==
    Gradient Corrections:              PBEc PBEx                               == Not Default ==

 SPIN  (restricted / unrestr.)
    Molecule:                          Restricted                               

 OTHER ASPECTS
    Relativistic Corrections:          scalar (ZORA,SAPA)                      == Not Default ==

    Nuclear Charge Density Model:      Point Charge Nuclei                                                                                                                                                                                     
    Core Treatment:                    Frozen Orbital(s)                        

    Hyperfine or Zeeman Interaction:   ---                                      



 =====================================
 S Y M M E T R Y ,   E L E C T R O N S
 =====================================
  
 Symmetry: ATOM

 Irreducible Representations, including subspecies
 -------------------------------------------------
 S
 P:x  P:y  P:z
 D:z2  D:x2-y2  D:xy  D:xz  D:yz
 F:z3  F:z  F:xyz  F:z2x  F:z2y  F:x  F:y


 Configuration of Valence Electrons
 ==================================

          Occupation Numbers
          -------------------------------------------------
 S        1
 P        0
 D        0
 F        0
          -------------------------------------------------

 Total:   1

 Net Charge: 0 (Nuclei minus Electrons)

 Preset values for MO occupations will be applied through SCF cycle no. 1000000
 Thereafter, the program will assign electrons to MOs that are spatially
 similar to the occupied MOs in a "reference" cycle ("KeepOrbitals").
 The reference cycle is always the PREVIOUS cycle: it will evolve with
 the SCF procedure.



 ================================
 (Slater-type)  F U N C T I O N S  ***  (Basis and Fit)  ***
 ================================
  

 Atom Type    1  (H)
 ==============

 Valence Basis Sets:   9
 -----------------------
   1 S    3.300000
   1 S    2.000000
   1 S    1.400000
   1 S    1.000000
   1 S    0.710000
   2 P    2.000000
   2 P    1.000000
   3 D    2.500000
   3 D    1.500000

 Charge Fitting Sets (for the computation of the Coulomb Potential):  22
 -----------------------------------------------------------------------
   1 S    6.600000
   1 S    4.620000
   1 S    3.230000
   1 S    2.260000
   1 S    1.580000
   1 S    1.100000
   1 S    0.770000
   2 S    1.000000
   2 P    5.300000
   2 P    3.870000
   2 P    2.820000
   2 P    2.060000
   2 P    1.500000
   3 D    5.800000
   3 D    4.070000
   3 D    2.850000
   3 D    2.000000
   4 F    4.500000
   4 F    3.350000
   4 F    2.500000
   5 G    5.000000
   5 G    3.000000


 BAS: List of all Elementary Cartesian Basis Functions
 =====================================================

 The numbering in the list below (to the right of the function characteristics) is referred
 to in print-outs of MO eigenvectors and Mulliken populations in the BAS representation
 (as contrasted to the SFO representation).

 Notes:
 1. The functions are characterized by a polynomial prefactor (powers of x,y,z and r) and
    an exponential decay factor alpha.
 2. Since the basis sets are specific for an atom TYPE, the individual functions occur on
    all atoms of that type.
 3. The word 'Core' in the left margin signals that it is a Core Function (CF) : not a
    degree of freedom in the valence set, but only used to ensure orthogonalization of
    the other valence basis functions on the frozen Core Orbitals.


 (power of) X  Y  Z  R     Alpha  on Atom
            ==========     =====     ==========

 H                                    1
                                  ---------------------------------------------------------------------------
            0  0  0  0     3.300      1
            0  0  0  0     2.000      2
            0  0  0  0     1.400      3
            0  0  0  0     1.000      4
            0  0  0  0     0.710      5
            1  0  0  0     2.000      6
            0  1  0  0     2.000      7
            0  0  1  0     2.000      8
            1  0  0  0     1.000      9
            0  1  0  0     1.000     10
            0  0  1  0     1.000     11
            2  0  0  0     2.500     12
            1  1  0  0     2.500     13
            1  0  1  0     2.500     14
            0  2  0  0     2.500     15
            0  1  1  0     2.500     16
            0  0  2  0     2.500     17
            2  0  0  0     1.500     18
            1  1  0  0     1.500     19
            1  0  1  0     1.500     20
            0  2  0  0     1.500     21
            0  1  1  0     1.500     22
            0  0  2  0     1.500     23

 Total number of charge fitting functions (nprimf)       107
 Total number of Cartesian basis functions (naos)         23
 Total number of Cartesian core functions  (ncos)          0



 BAS: List of all Elementary Cartesian Basis Functions
 =====================================================

 The numbering in the list below (to the right of the function characteristics) is referred
 to in print-outs of MO eigenvectors and Mulliken populations in the BAS representation
 (as contrasted to the SFO representation).

 Notes:
 1. The functions are characterized by a polynomial prefactor (powers of x,y,z and r) and
    an exponential decay factor alpha.
 2. Since the basis sets are specific for an atom TYPE, the individual functions occur on
    all atoms of that type.
 3. The word 'Core' in the left margin signals that it is a Core Function (CF) : not a
    degree of freedom in the valence set, but only used to ensure orthogonalization of
    the other valence basis functions on the frozen Core Orbitals.


 (power of) X  Y  Z  R     Alpha  on Atom
            ==========     =====     ==========

 H                                    1
                                  ---------------------------------------------------------------------------
            0  0  0  0     3.300      1
            0  0  0  0     2.000      2
            0  0  0  0     1.400      3
            0  0  0  0     1.000      4
            0  0  0  0     0.710      5
            1  0  0  0     2.000      6
            0  1  0  0     2.000      7
            0  0  1  0     2.000      8
            1  0  0  0     1.000      9
            0  1  0  0     1.000     10
            0  0  1  0     1.000     11
            2  0  0  0     2.500     12
            1  1  0  0     2.500     13
            1  0  1  0     2.500     14
            0  2  0  0     2.500     15
            0  1  1  0     2.500     16
            0  0  2  0     2.500     17
            2  0  0  0     1.500     18
            1  1  0  0     1.500     19
            1  0  1  0     1.500     20
            0  2  0  0     1.500     21
            0  1  1  0     1.500     22
            0  0  2  0     1.500     23
1
 ***************************************************************************************************



                                              ***********************
                                              *  T E C H N I C A L  *
                                              ***********************
  



 =============================================================
 P A R A L L E L I Z A T I O N  and  V E C T O R I Z A T I O N
 =============================================================
  
 Nr of parallel processes:                                1
 Maximum vector length in NumInt loops:                 128



 ===============
 I O  vs.  C P U  ***  (store numerical data on disk or recalculate)  ***
 ===============
  
 Basis functions:   recalculate when needed
 Fit functions:     recalculate when needed

 IO buffersize (Mb):                                     64.000000



 =====================
 S C F   U P D A T E S
 =====================
  
 Max. nr. of cycles:                               100
 Convergence criterion:                              0.0000000100
   secondary criterion:                              0.0000000100

 Mix parameter (when DIIS does not apply):           0.2000000000
 Special mix parameter for the first cycle:          1.0000000000


 DIIS (Direct Inversion in Iteration Space)
    Replace damping when SCF Error is below:         0.5000000000
    Apply anyway after SCF cycle:
                                                     5
    (Max.) nr. of expansion vectors:                10

    Upperbound on expansion coefficients:            5.0000000000
    (when exceeded, IterationSpace is re-built)
    2nd Upperbound on coefficients:                 25.0000000000
    (when exceeded, simple damping will be used)
 Automatic ElectronSmearing (in case of problematic SCF convergence) disabled



 =================
 P R E C I S I O N  ***  (General: NumInt, NeglectFunctionTails, ...)  ***
 =================
  

 NumInt:           Target precision:                10.0000000000
 -------           Initial precision:               10.0000000000
                   Min. precision (optimization):   10.0000000000

 Neglect Functions:          Basis functions:        0.1000000000E-11
 ------------------          Fit functions:          0.1000000000E-11



 ===========================
 L I N E A R   S C A L I N G
 ===========================
  

 Cut-off radii density fit:                        0.1000000000E-13
 Overlap cut-off criterion AO matrix elements:     0.1000000000E-11
 Cut-offs for Coulomb potential and fitted density:0.1000000000E-13
 Cut-off criterion for Coulomb multipole terms:    0.1000000000E-13
 Progressive Convergence parameter:                 0.000000000    
1
 ***************************************************************************************************



                                            ***************************
                                            *  C O M P U T A T I O N  *
                                            ***************************
  

 Number of elements of the density matrix on this node (used, total):       276       276



 ====================================================
 Numerical Integration : Voronoi Polyhedra (Te Velde)
 ====================================================
  
 General Accuracy Parameter :                         10.00

 Symmetry used in the points section:  ATOM  


 Summary of the Symmetry Unique Points:
 --------------------------------------
    Nr. of used Symmetry Operators                     1

    Points in the Atomic Spheres                      44
    Points in the Atomic Polyhedra                     0
    Points in the Outer Region                         0
    ----------------------------------------------------
    Total                                             44

    Sum of Weights                                 33854.777883

 Total nr. of points:         44
 Nr. of blocks:                1
 Block length:                44
 Nr. of dummy points:          0


 Test of Precision of the Numerical Integration Grid
 ===================================================

 Integral of the Total Core Density:                   0.00000000000000



 =====
 S C F
 =====
  

 CYCLE    1
 orbitals (Q,E):
 ---------------
 S :1...5            ( 1.00    -0.5000)  ( 0.00    -0.1102)  ( 0.00     0.2912)  ( 0.00     2.1458)
                     ( 0.00    15.1140)
 P :1...2            ( 0.00    -0.0467)  ( 0.00     1.6698)
 D :1...2            ( 0.00     0.4090)  ( 0.00     3.3827)

 CYCLE    2
 d-Pmat  mean:  0.40E-01
 imax=      4: -0.73E+00
 orbitals (Q,E):
 ---------------
 S :1...2            ( 1.00    -0.2213)  ( 0.00     0.0617)
 P :1...1            ( 0.00     0.1820)
 D :1...1            ( 0.00     0.6395)

 CYCLE    3
 d-Pmat  mean:  0.48E-02
 imax=      4:  0.66E-01
 orbitals (Q,E):
 ---------------
 S :1...2            ( 1.00    -0.2392)  ( 0.00     0.0523)
 P :1...1            ( 0.00     0.1713)
 D :1...1            ( 0.00     0.6290)

 CYCLE    4
 d-Pmat  mean:  0.47E-03
 imax=      4: -0.74E-02
 orbitals (Q,E):
 ---------------
 S :1...2            ( 1.00    -0.2386)  ( 0.00     0.0522)
 P :1...1            ( 0.00     0.1716)
 D :1...1            ( 0.00     0.6293)

 CYCLE    5
 d-Pmat  mean:  0.13E-04
 imax=      4:  0.20E-03
 orbitals (Q,E):
 ---------------
 S :1...2            ( 1.00    -0.2386)  ( 0.00     0.0522)
 P :1...1            ( 0.00     0.1716)
 D :1...1            ( 0.00     0.6293)

 CYCLE    6
 d-Pmat  mean:  0.14E-06
 imax=      4:  0.26E-05
 orbitals (Q,E):
 ---------------
 S :1...2            ( 1.00    -0.2386)  ( 0.00     0.0522)
 P :1...1            ( 0.00     0.1716)
 D :1...1            ( 0.00     0.6293)

 CYCLE    7
 d-Pmat  mean:  0.24E-08
 imax=      4:  0.39E-07
 orbitals (Q,E):
 ---------------
 S :1...2            ( 1.00    -0.2386)  ( 0.00     0.0522)
 P :1...1            ( 0.00     0.1716)
 D :1...1            ( 0.00     0.6293)

 SCF CONVERGED

 CYCLE    8
1
 ***************************************************************************************************



                                                *******************
                                                *  R E S U L T S  *
                                                *******************
  
 *** Setting up for NEW gradients in focky
 *** Using FIT density in focky

 Scaled ZORA Orbital Energies, per Irrep and Spin:
 =================================================
                        Occup              E (au)              E (eV)       Diff (eV) with prev. cycle
                        -----      --------------------        ------       --------------------------
 S
               1        1.000     -0.23860414448778E+00        -6.493              -2.14E-10
               2        0.000      0.52240780773135E-01         1.422
               3        0.000      0.50128711414798E+00        13.641
               4        0.000      0.23892611828176E+01        65.015
               5        0.000      0.15295018626305E+02       416.199
 P
               1        0.000      0.17156247999750E+00         4.668
               2        0.000      0.19364620405874E+01        52.694
 D
               1        0.000      0.62928666110106E+00        17.124
               2        0.000      0.36544214463356E+01        99.442


 Partially Occupied:
               1 S                -0.23860414448778E+00
  
 LUMO :        2 S                 0.52240780773135E-01
  


 Orbital Energies, all Irreps
 ========================================

 Irrep        no.  (spin)   Occup              E (au)                E (eV)
 ---------------------------------------------------------------------------
 S             1             1.00       -0.23860414448778E+00        -6.4927
 S             2             0.00        0.52240780773135E-01         1.4215
 P             1             0.00        0.17156247999750E+00         4.6685
 S             3             0.00        0.50128711414798E+00        13.6407
 D             1             0.00        0.62928666110106E+00        17.1238
 P             2             0.00        0.19364620405874E+01        52.6938
 S             4             0.00        0.23892611828176E+01        65.0151
 D             2             0.00        0.36544214463356E+01        99.4419
 S             5             0.00        0.15295018626305E+02       416.1986


 All Electron Calculation, thus no Orbital Energies of the Core Orbitals are calculated



 =======================================
 M U L L I K E N   P O P U L A T I O N S
 =======================================
  
 The survey below gives for each atom:
 a) the total charge (Z minus electrons)
 b) the net spin polarization (nr of electrons spin-A minus spin-B)
 c) for each spin the atomic electron valence density (integrated) per L-value.

 Atom              Charge    Spin density          S         P         D         F
 ----              ------    ------------       ------    ------    ------    ------
 1 H               0.0000                       1.0000    0.0000    0.0000    0.0000

 Populations of individual BAS functions
 ----------------------------------------
 1 H           -0.0037  0.0405  0.0399  0.5670  0.3563  0.0000  0.0000  0.0000  0.0000  0.0000
                0.0000  0.0000  0.0000  0.0000  0.0000  0.0000  0.0000  0.0000  0.0000  0.0000
                0.0000  0.0000  0.0000

 Gross Charges per Atom (Z minus electrons)
 ==========================================
             0.0000
 Net Total:  0.00000000


 Atom-Atom Population Matrix (off-diagonal elements not doubled)
 ===============================================================

     1 :     1.0000



 =============
 Dipole Moment  ***  (Debye)  ***
 =============
  
 Vector   :         0.00000000      0.00000000      0.00000000
 Magnitude:         0.00000000

 This molecular dipole moment is calculated with analytic integration



 =========================================
 Quadrupole Moment (Buckingham convention)  ***  (a.u.)  ***
 =========================================
  
      quad-xx        quad-xy        quad-xz        quad-yy        quad-yz        quad-zz
      0.00000000     0.00000000     0.00000000     0.00000000     0.00000000     0.00000000

 This molecular quadrupole moment is calculated with analytic integration



 ===============================================================================
 Electrostatic potential at the Nuclei due to valence electrons and other nuclei
 ===============================================================================
  
         Atom                  Potential
         ----                  ---------
     1)   H                   0.94463948
 
 
 ========================
 No memory problems found
 ========================
 
 Maximum number of active allocate calls:         378
 
 *******************************************************************************

                             A D F   E X I T
 NORMAL TERMINATION



 =================
 Timing Statistics
 =================
  
 Total Used :                     CPU=        0.24      System=        0.06     Elapsed=        1.52

 Calls  Section                     ( Mean, Percentage )
 ---------------------------------------------------------------------------------------------------
     3  ><      ................      0.00    0.80             0.00    0.01             0.01    2.05
     1  INIT    ................      0.01    4.78             0.01    9.44             0.37   24.20
     1  GEOMET  ................      0.01    2.96             0.03   43.15             0.11    7.01
     1  INPUTA  ................      0.00    1.22             0.00    0.00             0.00    0.27
     1  MAINSY  ................      0.01    3.66             0.00    5.18             0.16   10.51
     1  SYMFIT  ................      0.00    0.11             0.00    0.36             0.00    0.03
     1  CORORT  ................      0.00    0.00             0.00    1.21             0.02    1.45
     1  SYMORB  ................      0.00    0.00             0.00    1.87             0.00    0.07
     1  FITINT  ................      0.00    1.87             0.00    4.45             0.01    0.88
     1  CLSMAT  ................      0.00    0.31             0.00    0.00             0.02    1.07
     1  ORTHON  ................      0.00    1.07             0.00    0.00             0.01    0.49
     1  GENPT   ................      0.01    2.70             0.00    6.10             0.05    3.49
     1  PTBAS   ................      0.00    0.84             0.00    2.38             0.02    1.24
     8  FOCKY   ................      0.01   45.49             0.00   20.95             0.02   11.50
     8  FOCKTR  ................      0.00    1.42             0.00    0.08             0.00    0.23
     8  FOCKNM  ................      0.00    0.16             0.00    0.02             0.00    0.03
     8  SDIIS   ................      0.00    2.52             0.00    0.37             0.04   20.05
     8  EMERGE  ................      0.00   12.70             0.00    2.64             0.01    6.33
     1  COREPS  ................      0.00    1.73             0.00    1.14             0.01    0.56
     1  POPAN   ................      0.00    1.35             0.00    0.60             0.02    1.21
     1  DEBYE   ................      0.00    0.40             0.00    0.03             0.02    1.04
     1  QMPOT   ................      0.00    1.41             0.00    0.00             0.00    0.22
     1  EXIT PROCEDURE .........      0.03   12.50             0.00    0.00             0.09    6.08


 Currently Open Files (EXIT00)
 ====================

 Unit    Access Format  Status   Type       Ident (file)
 -------------------------------------------------------
   3      SEQ    FORM   TRANSP  NORMAL      LOGFILE
                                          ( logfile )


 Buffered I/O statistics
 =======================
 Memory available:                     67108864
 Number of records fitting in memory:     16131
 Input :   1.3% of                         3604  *4k bytes
 Output:  10.6% of                         1855  *4k bytes
 Records from serial files evicted:           0
                    others evicted:           0
 Hash table lookups:      14887 with          0 conflicts (  0.00%)

 ***************************************************************************************************
 (LOGFILE)
 <Jan01-2013> <00:00:00>  DIRAC 2013.01  RunTime: Jan01-2013 00:00:00  Nodes: 1  Procs: 1
 <Jan01-2013> <00:00:01>  NORMAL TERMINATION
 <Jan01-2013> <00:00:01>  END
 <Jan01-2013> <00:00:01>  ADF 2013.01  RunTime: Jan01-2013 00:00:01  Nodes: 1  Procs: 1
 <Jan01-2013> <00:00:01>  Hydrogen (QZ, all electron, 5S 2P 2D)
 <Jan01-2013> <00:00:01>  RunType   : CREATE
 <Jan01-2013> <00:00:01>  Net Charge: 0 (Nuclei minus Electrons)
 <Jan01-2013> <00:00:01>  Symmetry  : ATOM
  Coordinates
    Atom         X           Y           Z   (Angstrom)
    1.H         0.000000    0.000000    0.000000
 <Jan01-2013> <00:00:01>  >>>> CORORT
 <Jan01-2013> <00:00:02>  >>>> FITINT
 <Jan01-2013> <00:00:02>  >>>> CLSMAT
 <Jan01-2013> <00:00:02>  >>>> ORTHON
 <Jan01-2013> <00:00:02>  >>>> GENPT
 <Jan01-2013> <00:00:02>  Acc.Num.Int.=  10.000
 <Jan01-2013> <00:00:02>  Block Length=  44
 <Jan01-2013> <00:00:02>  >>>> PTBAS
 <Jan01-2013> <00:00:02>  >>>> CYCLE
 <Jan01-2013> <00:00:02>    1
 <Jan01-2013> <00:00:02>    2  ErrMat   0.03803841  MaxEl  0.03078708
 <Jan01-2013> <00:00:02>    3  ErrMat   0.00916622  MaxEl -0.00901560
 <Jan01-2013> <00:00:02>    4  ErrMat   0.00035667  MaxEl  0.00031421
 <Jan01-2013> <00:00:02>    5  ErrMat   0.00000962  MaxEl -0.00000892
 <Jan01-2013> <00:00:02>    6  ErrMat   0.00000013  MaxEl  0.00000008
 <Jan01-2013> <00:00:02>    7  ErrMat   0.00000000  MaxEl  0.00000000
 <Jan01-2013> <00:00:02>  SCF converged
 <Jan01-2013> <00:00:02>    8  ErrMat   0.00000000  MaxEl  0.00000000
 <Jan01-2013> <00:00:02>   Solutions with partially occupied orbitals may not be
 <Jan01-2013> <00:00:02>   lowest in energy. You might consider lowering the
 <Jan01-2013> <00:00:02>   symmetry in the input and explicitly specifying integer
 <Jan01-2013> <00:00:02>   occupations. In that case always check that you obtain
 <Jan01-2013> <00:00:02>   an aufbau solution.
 <Jan01-2013> <00:00:02>  >>>> POPAN
 <Jan01-2013> <00:00:02>  >>>> DEBYE
 <Jan01-2013> <00:00:02>  NORMAL TERMINATION
 <Jan01-2013> <00:00:02>  END

 *******************************************************************************
 *                                                                             *
 *  -------------------------------------                                      *
 *   Amsterdam Density Functional  (ADF)         2013.01   April 2, 2013       *
 *  -------------------------------------                                      *
 *                                               Build 201304112106            *
 *                                                                             *
 *                                                                             *
 *                            =====================                            *
 *                            |                   |                            *
 *                            |     D I R A C     |                            *
 *                            |                   |                            *
 *                            =====================                            *
 *                                                                             *
 *                                                                             *
 *   Online information and documentation:  http://www.scm.com                 *
 *   E-mail:  support@scm.com   info@scm.com                                   *
 *                                                                             *
 *   Scientific publications using ADF results must be properly referenced     *
 *   See the User Manuals (or the web site) for recommended citations          *
 *   The terms and conditions of the End User License Agreement apply to       *
 *   the use of ADF, http://www.scm.com/Sales/LicAgreement.html                *
 *                                                                             *
 ****************************  x86_64_linux_intel  *****************************
 
 Licensed to: Prof. Cacier Hadad / University of Antioquia / Medellin / COLOMBIA
 SCM User ID: u15319
  
 DIRAC 2013.01  RunTime: Jan01-2013 00:00:03  Nodes: 1  Procs: 1

 Temporary files are created in /tmp/kid_0.zkIcFp

1
 OXYGEN ATOM all electron RELATIVISTIC, Point Nuc, A and c fr
 N J RN H ZN XION ANUC CLIGHT
 5000    4100.00000000197.36710137  8.00000000  0.00000000   15.994914  0.1370360E+03
  PH   PHI     EPS        DEL        DELRVR
  0.30  0.30     2500.00  0.00001000  0.00001000
 IDIRC  NC1  NDEBU NPRIN  IPUN IRCOR IWCOR
   1   300     0     0     0     0     0
   XALPHA      XLATTER      RNUC
  0.70000000  0.00000000  0.00000000 Point Charge
   XN   XL   XJ      XE          XZ      XDELL
  1.0  0.0  0.5      -5.000       2.000     0.00000
  2.0  0.0  0.5      -1.000       2.000     0.00000
  2.0  1.0  0.5      -1.000       2.000     0.00000
  2.0  1.0  1.5      -1.000       2.000     0.00000
 ICORP=  0  NPCL=  0  DEMP=0.00  PEPS=0.000000
 R(1)=  0.1000000E-08 D=  0.1005080E+01 RNUC=  0.0000000E+00
 converged at cycle   28  DENSITY AVERAGING    0.2400
  MAXIMUM ERROR IN R.V(R) IS   0.81125670E-05
 Q,EY,EV,EZ,ESUM,ETOT,RHO  0.800000E+01 -0.101247E+02 -0.114961E+03 -0.177573E+03 -0.405053E+02 -0.743427E+02  0.414766E-14


 DIRAC CALCULATION
1                    OXYGEN ATOM all electron RELATIVISTIC, Point Nuc, A and c from libtc


 EXCHANGE COEFFICIENT=  0.7000000           TAIL CORRECTION=  0.           NUCLEAR RADIUS=  0.000E+00
0                       ORBITAL    N    L    J     ELECTRONS     EIGENVALUE                DELTA OF EIGENV.

                          1S1/2  1.0  0.0  0.5     2.000       -0.1880014E+02                 0.7264359E-06
                          2S1/2  2.0  0.0  0.5     2.000       -0.8412236E+00                 0.5932752E-05
                          2P1/2  2.0  1.0  0.5     2.000       -0.3063203E+00                 0.5998471E-05
                          2P3/2  2.0  1.0  1.5     2.000       -0.3049609E+00                 0.5986971E-05


                                        NUCLEAR CHARGE=    8.000000
                            INTEGRAL OF CHARGE DENSITY=    8.000000
                           SUM OF THE ORBITAL ENERGIES=    -40.5053
                                          TOTAL ENERGY=    -74.3427
                                        KINETIC ENERGY=     74.4552
                             NUCLEAR ATTRACTION ENERGY=   -177.5730
                             ELECTRON REPULSION ENERGY=     36.3686
                                       EXCHANGE ENERGY=     -7.5935

 *******************************************************************************

                             D I R A C   E X I T
 NORMAL TERMINATION



 =================
 Timing Statistics
 =================
  
 Total Used :                     CPU=        0.15      System=        0.02     Elapsed=        0.37

 Calls  Section                     ( Mean, Percentage )
 ---------------------------------------------------------------------------------------------------
     2  ><      ................      0.00    0.00             0.00    0.01             0.00    0.00
     1  EXIT PROCEDURE .........      0.15  100.00             0.02   99.99             0.37  100.00


 Currently Open Files (EXIT00)
 ====================

 Unit    Access Format  Status   Type       Ident (file)
 -------------------------------------------------------
   3      SEQ    FORM   TRANSP  NORMAL      LOGFILE
                                          ( logfile )


 Buffered I/O statistics
 =======================
 Memory available:                     67108864
 Number of records fitting in memory:     16131
 Input : 100.0% of                            0  *4k bytes
 Output: 100.0% of                            0  *4k bytes
 Records from serial files evicted:           0
                    others evicted:           0
 Hash table lookups:          0 with          0 conflicts (100.00%)
(INPUT FILE)
Create O   file=/home/andyzapa/adf2013.01/atomicdata/ZORA/QZ4P/O
 XC
 GGA PBE
End
relativistic ZORA
Corepotentials t12.rel
End Input

 *******************************************************************************
 *                                                                             *
 *  -------------------------------------                                      *
 *   Amsterdam Density Functional  (ADF)         2013.01   April 2, 2013       *
 *  -------------------------------------                                      *
 *                                               Build 201304112215            *
 *                                                                             *
 *                                                                             *
 *                              =================                              *
 *                              |               |                              *
 *                              |     A D F     |                              *
 *                              |               |                              *
 *                              =================                              *
 *                                                                             *
 *                                                                             *
 *   Online information and documentation:  http://www.scm.com                 *
 *   E-mail:  support@scm.com   info@scm.com                                   *
 *                                                                             *
 *   Scientific publications using ADF results must be properly referenced     *
 *   See the User Manuals (or the web site) for recommended citations          *
 *   The terms and conditions of the End User License Agreement apply to       *
 *   the use of ADF, http://www.scm.com/Sales/LicAgreement.html                *
 *                                                                             *
 ********************  x86_64_linux_intel / platform_mpi  **********************
 
 Licensed to: Prof. Cacier Hadad / University of Antioquia / Medellin / COLOMBIA
 SCM User ID: u15319
  
 ADF 2013.01  RunTime: Jan01-2013 00:00:03  Nodes: 1  Procs: 1

 Temporary files are created in /tmp/kid_0.Rbr2K1

 Oxygen (QZ, all electron, 8S 4P 2D 2F)



 ===========================
 A T T A C H E D   F I L E S
 ===========================
  
 CREATE - Data File:    /home/andyzapa/adf2013.01/atomicdata/ZORA/QZ4P/O
                        Oxygen (QZ, all electron, 8S 4P 2D 2F)
 Core Potentials:
         file : t12.rel



 ===============================
 M O D E L   P A R A M E T E R S
 ===============================
  
 DENSITY FUNCTIONAL POTENTIAL (scf)
    LDA:                               PW92                                    == Not Default ==
    Gradient Corrections:              PBEc PBEx                               == Not Default ==

 SPIN  (restricted / unrestr.)
    Molecule:                          Restricted                               

 OTHER ASPECTS
    Relativistic Corrections:          scalar (ZORA,SAPA)                      == Not Default ==

    Nuclear Charge Density Model:      Point Charge Nuclei                                                                                                                                                                                     
    Core Treatment:                    Frozen Orbital(s)                        

    Hyperfine or Zeeman Interaction:   ---                                      



 =====================================
 S Y M M E T R Y ,   E L E C T R O N S
 =====================================
  
 Symmetry: ATOM

 Irreducible Representations, including subspecies
 -------------------------------------------------
 S
 P:x  P:y  P:z
 D:z2  D:x2-y2  D:xy  D:xz  D:yz
 F:z3  F:z  F:xyz  F:z2x  F:z2y  F:x  F:y


 Configuration of Valence Electrons
 ==================================

          Occupation Numbers
          -------------------------------------------------
 S        2*2
 P        4
 D        0
 F        0
          -------------------------------------------------

 Total:   8

 Net Charge: 0 (Nuclei minus Electrons)

 Preset values for MO occupations will be applied through SCF cycle no. 1000000
 Thereafter, the program will assign electrons to MOs that are spatially
 similar to the occupied MOs in a "reference" cycle ("KeepOrbitals").
 The reference cycle is always the PREVIOUS cycle: it will evolve with
 the SCF procedure.



 ================================
 (Slater-type)  F U N C T I O N S  ***  (Basis and Fit)  ***
 ================================
  

 Atom Type    1  (O)
 ==============

 Valence Basis Sets:  16
 -----------------------
   1 S   14.800000
   1 S    8.750000
   1 S    6.650000
   2 S    7.100000
   2 S    3.200000
   2 S    2.050000
   2 S    1.500000
   2 S    0.750000
   2 P    5.700000
   2 P    3.050000
   2 P    1.650000
   2 P    1.000000
   3 D    2.500000
   3 D    1.500000
   4 F    4.000000
   4 F    2.000000

 Charge Fitting Sets (for the computation of the Coulomb Potential):  37
 -----------------------------------------------------------------------
   1 S   29.600000
   1 S   22.760000
   1 S   17.500000
   1 S   11.580000
   2 S   14.160000
   2 S   10.290000
   2 S    7.480000
   2 S    5.430000
   3 S    5.780000
   3 S    4.410000
   3 S    3.370000
   3 S    2.570000
   3 S    1.960000
   3 S    1.500000
   2 P   14.450000
   2 P    9.770000
   2 P    6.610000
   3 P    6.560000
   3 P    4.710000
   3 P    3.390000
   3 P    2.430000
   3 P    1.750000
   3 D   11.400000
   3 D    7.640000
   3 D    5.120000
   4 D    4.550000
   4 D    3.200000
   4 D    2.250000
   4 F   12.750000
   4 F    8.120000
   4 F    5.170000
   5 F    4.130000
   5 F    2.750000
   5 G    9.700000
   5 G    6.560000
   5 G    4.440000
   5 G    3.000000


 BAS: List of all Elementary Cartesian Basis Functions
 =====================================================

 The numbering in the list below (to the right of the function characteristics) is referred
 to in print-outs of MO eigenvectors and Mulliken populations in the BAS representation
 (as contrasted to the SFO representation).

 Notes:
 1. The functions are characterized by a polynomial prefactor (powers of x,y,z and r) and
    an exponential decay factor alpha.
 2. Since the basis sets are specific for an atom TYPE, the individual functions occur on
    all atoms of that type.
 3. The word 'Core' in the left margin signals that it is a Core Function (CF) : not a
    degree of freedom in the valence set, but only used to ensure orthogonalization of
    the other valence basis functions on the frozen Core Orbitals.


 (power of) X  Y  Z  R     Alpha  on Atom
            ==========     =====     ==========

 O                                    1
                                  ---------------------------------------------------------------------------
            0  0  0  0    14.800      1
            0  0  0  0     8.750      2
            0  0  0  0     6.650      3
            0  0  0  1     7.100      4
            0  0  0  1     3.200      5
            0  0  0  1     2.050      6
            0  0  0  1     1.500      7
            0  0  0  1     0.750      8
            1  0  0  0     5.700      9
            0  1  0  0     5.700     10
            0  0  1  0     5.700     11
            1  0  0  0     3.050     12
            0  1  0  0     3.050     13
            0  0  1  0     3.050     14
            1  0  0  0     1.650     15
            0  1  0  0     1.650     16
            0  0  1  0     1.650     17
            1  0  0  0     1.000     18
            0  1  0  0     1.000     19
            0  0  1  0     1.000     20
            2  0  0  0     2.500     21
            1  1  0  0     2.500     22
            1  0  1  0     2.500     23
            0  2  0  0     2.500     24
            0  1  1  0     2.500     25
            0  0  2  0     2.500     26
            2  0  0  0     1.500     27
            1  1  0  0     1.500     28
            1  0  1  0     1.500     29
            0  2  0  0     1.500     30
            0  1  1  0     1.500     31
            0  0  2  0     1.500     32
            3  0  0  0     4.000     33
            2  1  0  0     4.000     34
            2  0  1  0     4.000     35
            1  2  0  0     4.000     36
            1  1  1  0     4.000     37
            1  0  2  0     4.000     38
            0  3  0  0     4.000     39
            0  2  1  0     4.000     40
            0  1  2  0     4.000     41
            0  0  3  0     4.000     42
            3  0  0  0     2.000     43
            2  1  0  0     2.000     44
            2  0  1  0     2.000     45
            1  2  0  0     2.000     46
            1  1  1  0     2.000     47
            1  0  2  0     2.000     48
            0  3  0  0     2.000     49
            0  2  1  0     2.000     50
            0  1  2  0     2.000     51
            0  0  3  0     2.000     52

 Total number of charge fitting functions (nprimf)       184
 Total number of Cartesian basis functions (naos)         52
 Total number of Cartesian core functions  (ncos)          0



 BAS: List of all Elementary Cartesian Basis Functions
 =====================================================

 The numbering in the list below (to the right of the function characteristics) is referred
 to in print-outs of MO eigenvectors and Mulliken populations in the BAS representation
 (as contrasted to the SFO representation).

 Notes:
 1. The functions are characterized by a polynomial prefactor (powers of x,y,z and r) and
    an exponential decay factor alpha.
 2. Since the basis sets are specific for an atom TYPE, the individual functions occur on
    all atoms of that type.
 3. The word 'Core' in the left margin signals that it is a Core Function (CF) : not a
    degree of freedom in the valence set, but only used to ensure orthogonalization of
    the other valence basis functions on the frozen Core Orbitals.


 (power of) X  Y  Z  R     Alpha  on Atom
            ==========     =====     ==========

 O                                    1
                                  ---------------------------------------------------------------------------
            0  0  0  0    14.800      1
            0  0  0  0     8.750      2
            0  0  0  0     6.650      3
            0  0  0  1     7.100      4
            0  0  0  1     3.200      5
            0  0  0  1     2.050      6
            0  0  0  1     1.500      7
            0  0  0  1     0.750      8
            1  0  0  0     5.700      9
            0  1  0  0     5.700     10
            0  0  1  0     5.700     11
            1  0  0  0     3.050     12
            0  1  0  0     3.050     13
            0  0  1  0     3.050     14
            1  0  0  0     1.650     15
            0  1  0  0     1.650     16
            0  0  1  0     1.650     17
            1  0  0  0     1.000     18
            0  1  0  0     1.000     19
            0  0  1  0     1.000     20
            2  0  0  0     2.500     21
            1  1  0  0     2.500     22
            1  0  1  0     2.500     23
            0  2  0  0     2.500     24
            0  1  1  0     2.500     25
            0  0  2  0     2.500     26
            2  0  0  0     1.500     27
            1  1  0  0     1.500     28
            1  0  1  0     1.500     29
            0  2  0  0     1.500     30
            0  1  1  0     1.500     31
            0  0  2  0     1.500     32
            3  0  0  0     4.000     33
            2  1  0  0     4.000     34
            2  0  1  0     4.000     35
            1  2  0  0     4.000     36
            1  1  1  0     4.000     37
            1  0  2  0     4.000     38
            0  3  0  0     4.000     39
            0  2  1  0     4.000     40
            0  1  2  0     4.000     41
            0  0  3  0     4.000     42
            3  0  0  0     2.000     43
            2  1  0  0     2.000     44
            2  0  1  0     2.000     45
            1  2  0  0     2.000     46
            1  1  1  0     2.000     47
            1  0  2  0     2.000     48
            0  3  0  0     2.000     49
            0  2  1  0     2.000     50
            0  1  2  0     2.000     51
            0  0  3  0     2.000     52
1
 ***************************************************************************************************



                                              ***********************
                                              *  T E C H N I C A L  *
                                              ***********************
  



 =============================================================
 P A R A L L E L I Z A T I O N  and  V E C T O R I Z A T I O N
 =============================================================
  
 Nr of parallel processes:                                1
 Maximum vector length in NumInt loops:                 128



 ===============
 I O  vs.  C P U  ***  (store numerical data on disk or recalculate)  ***
 ===============
  
 Basis functions:   recalculate when needed
 Fit functions:     recalculate when needed

 IO buffersize (Mb):                                     64.000000



 =====================
 S C F   U P D A T E S
 =====================
  
 Max. nr. of cycles:                               100
 Convergence criterion:                              0.0000000100
   secondary criterion:                              0.0000000100

 Mix parameter (when DIIS does not apply):           0.2000000000
 Special mix parameter for the first cycle:          1.0000000000


 DIIS (Direct Inversion in Iteration Space)
    Replace damping when SCF Error is below:         0.5000000000
    Apply anyway after SCF cycle:
                                                     5
    (Max.) nr. of expansion vectors:                10

    Upperbound on expansion coefficients:            5.0000000000
    (when exceeded, IterationSpace is re-built)
    2nd Upperbound on coefficients:                 25.0000000000
    (when exceeded, simple damping will be used)
 Automatic ElectronSmearing (in case of problematic SCF convergence) disabled



 =================
 P R E C I S I O N  ***  (General: NumInt, NeglectFunctionTails, ...)  ***
 =================
  

 NumInt:           Target precision:                10.0000000000
 -------           Initial precision:               10.0000000000
                   Min. precision (optimization):   10.0000000000

 Neglect Functions:          Basis functions:        0.1000000000E-11
 ------------------          Fit functions:          0.1000000000E-11



 ===========================
 L I N E A R   S C A L I N G
 ===========================
  

 Cut-off radii density fit:                        0.1000000000E-13
 Overlap cut-off criterion AO matrix elements:     0.1000000000E-11
 Cut-offs for Coulomb potential and fitted density:0.1000000000E-13
 Cut-off criterion for Coulomb multipole terms:    0.1000000000E-13
 Progressive Convergence parameter:                 0.000000000    
1
 ***************************************************************************************************



                                            ***************************
                                            *  C O M P U T A T I O N  *
                                            ***************************
  

 Number of elements of the density matrix on this node (used, total):      1378      1378



 ====================================================
 Numerical Integration : Voronoi Polyhedra (Te Velde)
 ====================================================
  
 General Accuracy Parameter :                         10.00

 Symmetry used in the points section:  ATOM  


 Summary of the Symmetry Unique Points:
 --------------------------------------
    Nr. of used Symmetry Operators                     1

    Points in the Atomic Spheres                      61
    Points in the Atomic Polyhedra                     0
    Points in the Outer Region                         0
    ----------------------------------------------------
    Total                                             61

    Sum of Weights                                 58501.056183

 Total nr. of points:         61
 Nr. of blocks:                1
 Block length:                61
 Nr. of dummy points:          0


 Test of Precision of the Numerical Integration Grid
 ===================================================

 Integral of the Total Core Density:                   0.00000000000000



 =====
 S C F
 =====
  

 CYCLE    1
 orbitals (Q,E):
 ---------------
 S :1...8            ( 2.00   -32.0159)  ( 2.00    -8.0044)  ( 0.00    -3.5574)  ( 0.00    -1.9901)
                     ( 0.00    -1.2515)  ( 0.00     4.1058)  ( 0.00    41.2206)  ( 0.00   308.5800)
 P :1...4            ( 4.00    -7.9758)  ( 0.00    -3.5116)  ( 0.00    -1.8856)  ( 0.00     3.1956)
 D :1...2            ( 0.00    -3.5495)  ( 0.00    -1.9917)
 F :1...2            ( 0.00    -1.9999)  ( 0.00     1.0590)

 CYCLE    2
 d-Pmat  mean:  0.11E+01
 imax=      3: -0.25E+02
 orbitals (Q,E):
 ---------------
 S :1...3            ( 2.00   -14.5566)  ( 2.00    -0.0356)  ( 0.00     0.1667)
 P :1...2            ( 4.00     0.2048)  ( 0.00     0.7903)
 D :1...1            ( 0.00     0.7381)
 F :1...1            ( 0.00     1.6042)

 CYCLE    3
 d-Pmat  mean:  0.30E+00
 imax=     20: -0.24E+01
 orbitals (Q,E):
 ---------------
 S :1...3            ( 2.00   -16.2388)  ( 2.00    -0.4301)  ( 0.00     0.0620)
 P :1...2            ( 4.00     0.0108)  ( 0.00     0.4058)
 D :1...1            ( 0.00     0.5775)
 F :1...1            ( 0.00     1.4155)

 CYCLE    4
 d-Pmat  mean:  0.10E+00
 imax=     20: -0.11E+01
 orbitals (Q,E):
 ---------------
 S :1...3            ( 2.00   -17.2725)  ( 2.00    -0.6986)  ( 0.00     0.0275)
 P :1...2            ( 4.00    -0.1717)  ( 0.00     0.2612)
 D :1...1            ( 0.00     0.5085)
 F :1...1            ( 0.00     1.3362)

 CYCLE    5
 d-Pmat  mean:  0.56E-01
 imax=      3:  0.70E+00
 orbitals (Q,E):
 ---------------
 S :1...3            ( 2.00   -18.8741)  ( 2.00    -0.8425)  ( 0.00     0.0251)
 P :1...2            ( 4.00    -0.2957)  ( 0.00     0.2201)
 D :1...1            ( 0.00     0.5505)
 F :1...1            ( 0.00     1.3859)

 CYCLE    6
 d-Pmat  mean:  0.57E-02
 imax=      2:  0.75E-01
 orbitals (Q,E):
 ---------------
 S :1...3            ( 2.00   -18.9263)  ( 2.00    -0.8875)  ( 0.00     0.0144)
 P :1...2            ( 4.00    -0.3386)  ( 0.00     0.1983)
 D :1...1            ( 0.00     0.5241)
 F :1...1            ( 0.00     1.3583)

 CYCLE    7
 d-Pmat  mean:  0.80E-03
 imax=      6: -0.45E-02
 orbitals (Q,E):
 ---------------
 S :1...3            ( 2.00   -18.9106)  ( 2.00    -0.8796)  ( 0.00     0.0160)
 P :1...2            ( 4.00    -0.3310)  ( 0.00     0.2007)
 D :1...1            ( 0.00     0.5265)
 F :1...1            ( 0.00     1.3609)

 CYCLE    8
 d-Pmat  mean:  0.91E-04
 imax=      6:  0.77E-03
 orbitals (Q,E):
 ---------------
 S :1...3            ( 2.00   -18.9122)  ( 2.00    -0.8804)  ( 0.00     0.0159)
 P :1...2            ( 4.00    -0.3317)  ( 0.00     0.2005)
 D :1...1            ( 0.00     0.5262)
 F :1...1            ( 0.00     1.3606)

 CYCLE    9
 d-Pmat  mean:  0.72E-06
 imax=      2: -0.12E-04
 orbitals (Q,E):
 ---------------
 S :1...3            ( 2.00   -18.9122)  ( 2.00    -0.8804)  ( 0.00     0.0159)
 P :1...2            ( 4.00    -0.3317)  ( 0.00     0.2005)
 D :1...1            ( 0.00     0.5262)
 F :1...1            ( 0.00     1.3606)

 CYCLE   10
 d-Pmat  mean:  0.12E-07
 imax=      6: -0.16E-06
 orbitals (Q,E):
 ---------------
 S :1...3            ( 2.00   -18.9122)  ( 2.00    -0.8804)  ( 0.00     0.0159)
 P :1...2            ( 4.00    -0.3317)  ( 0.00     0.2005)
 D :1...1            ( 0.00     0.5262)
 F :1...1            ( 0.00     1.3606)

 CYCLE   11
 d-Pmat  mean:  0.78E-10
 imax=      6: -0.78E-09
 orbitals (Q,E):
 ---------------
 S :1...3            ( 2.00   -18.9122)  ( 2.00    -0.8804)  ( 0.00     0.0159)
 P :1...2            ( 4.00    -0.3317)  ( 0.00     0.2005)
 D :1...1            ( 0.00     0.5262)
 F :1...1            ( 0.00     1.3606)

 SCF CONVERGED

 CYCLE   12
1
 ***************************************************************************************************



                                                *******************
                                                *  R E S U L T S  *
                                                *******************
  
 *** Setting up for NEW gradients in focky
 *** Using FIT density in focky

 Scaled ZORA Orbital Energies, per Irrep and Spin:
 =================================================
                        Occup              E (au)              E (eV)       Diff (eV) with prev. cycle
                        -----      --------------------        ------       --------------------------
 S
               1        2.000     -0.18912163588653E+02      -514.626               6.44E-09
               2        2.000     -0.88042536011068E+00       -23.958               6.64E-09
               3        0.000      0.15917247313072E-01         0.433
               4        0.000      0.47157190559675E+00        12.832
               5        0.000      0.25092163568557E+01        68.279
               6        0.000      0.11901959077829E+02       323.869
               7        0.000      0.52347890774712E+02      1424.459
               8        0.000      0.32159312651583E+03      8750.994
 P
               1        4.000     -0.33172720118487E+00        -9.027               6.51E-09
               2        0.000      0.20052917684509E+00         5.457
               3        0.000      0.16594440947598E+01        45.156
               4        0.000      0.12142335979902E+02       330.410
 D
               1        0.000      0.52623159780474E+00        14.319
               2        0.000      0.24055384911429E+01        65.458
 F
               1        0.000      0.13606224429299E+01        37.024
               2        0.000      0.70188296928074E+01       190.992


 Partially Occupied:
               1 P                -0.33172720118487E+00
  
 HOMO :        2 S                -0.88042536011068E+00
 LUMO :        3 S                 0.15917247313072E-01
  


 Orbital Energies, all Irreps
 ========================================

 Irrep        no.  (spin)   Occup              E (au)                E (eV)
 ---------------------------------------------------------------------------
 S             1             2.00       -0.18912163588653E+02      -514.6262
 S             2             2.00       -0.88042536011068E+00       -23.9576
 P             1             4.00       -0.33172720118487E+00        -9.0268
 S             3             0.00        0.15917247313072E-01         0.4331
 P             2             0.00        0.20052917684509E+00         5.4567
 S             4             0.00        0.47157190559675E+00        12.8321
 D             1             0.00        0.52623159780474E+00        14.3195
 F             1             0.00        0.13606224429299E+01        37.0244
 P             3             0.00        0.16594440947598E+01        45.1558
 D             2             0.00        0.24055384911429E+01        65.4580
 S             5             0.00        0.25092163568557E+01        68.2793
 F             2             0.00        0.70188296928074E+01       190.9921
 S             6             0.00        0.11901959077829E+02       323.8688
 P             4             0.00        0.12142335979902E+02       330.4098
 S             7             0.00        0.52347890774712E+02      1424.4586
 S             8             0.00        0.32159312651583E+03      8750.9942


 All Electron Calculation, thus no Orbital Energies of the Core Orbitals are calculated



 =======================================
 M U L L I K E N   P O P U L A T I O N S
 =======================================
  
 The survey below gives for each atom:
 a) the total charge (Z minus electrons)
 b) the net spin polarization (nr of electrons spin-A minus spin-B)
 c) for each spin the atomic electron valence density (integrated) per L-value.

 Atom              Charge    Spin density          S         P         D         F
 ----              ------    ------------       ------    ------    ------    ------
 1 O               0.0000                       4.0000    4.0000    0.0000    0.0000

 Populations of individual BAS functions
 ----------------------------------------
 1 O            0.0407  0.7707  1.2791 -0.1485  0.7639  1.0393  0.2537  0.0009  0.0450  0.0450
                0.0450  0.4807  0.4807  0.4807  0.6422  0.6422  0.6422  0.1654  0.1654  0.1654
                0.0000  0.0000  0.0000  0.0000  0.0000  0.0000  0.0000  0.0000  0.0000  0.0000
                0.0000  0.0000  0.0000  0.0000  0.0000  0.0000  0.0000  0.0000  0.0000  0.0000
                0.0000  0.0000  0.0000  0.0000  0.0000  0.0000  0.0000  0.0000  0.0000  0.0000
                0.0000  0.0000

 Gross Charges per Atom (Z minus electrons)
 ==========================================
             0.0000
 Net Total:  0.00000000


 Atom-Atom Population Matrix (off-diagonal elements not doubled)
 ===============================================================

     1 :     8.0000



 =============
 Dipole Moment  ***  (Debye)  ***
 =============
  
 Vector   :         0.00000000      0.00000000      0.00000000
 Magnitude:         0.00000000

 This molecular dipole moment is calculated with analytic integration



 =========================================
 Quadrupole Moment (Buckingham convention)  ***  (a.u.)  ***
 =========================================
  
      quad-xx        quad-xy        quad-xz        quad-yy        quad-yz        quad-zz
      0.00000000     0.00000000     0.00000000     0.00000000     0.00000000     0.00000000

 This molecular quadrupole moment is calculated with analytic integration



 ===============================================================================
 Electrostatic potential at the Nuclei due to valence electrons and other nuclei
 ===============================================================================
  
         Atom                  Potential
         ----                  ---------
     1)   O                  22.26490088
 
 
 ========================
 No memory problems found
 ========================
 
 Maximum number of active allocate calls:         476
 
 *******************************************************************************

                             A D F   E X I T
 NORMAL TERMINATION



 =================
 Timing Statistics
 =================
  
 Total Used :                     CPU=        0.37      System=        0.07     Elapsed=        1.59

 Calls  Section                     ( Mean, Percentage )
 ---------------------------------------------------------------------------------------------------
     3  ><      ................      0.00    0.54             0.00    0.04             0.01    1.41
     1  INIT    ................      0.02    4.33             0.00    2.10             0.16   10.00
     1  GEOMET  ................      0.01    2.51             0.03   38.90             0.17   10.91
     1  INPUTA  ................      0.00    0.61             0.00    1.69             0.00    0.27
     1  MAINSY  ................      0.00    0.77             0.01   14.41             0.09    5.69
     1  SYMFIT  ................      0.00    0.05             0.00    0.44             0.00    0.03
     1  CORORT  ................      0.00    0.07             0.00    0.60             0.01    0.39
     1  SYMORB  ................      0.00    0.45             0.00    0.05             0.00    0.11
     1  FITINT  ................      0.01    2.86             0.00    6.05             0.03    1.82
     1  CLSMAT  ................      0.00    0.11             0.00    0.72             0.02    1.08
     1  ORTHON  ................      0.00    0.42             0.00    2.73             0.01    0.57
     1  GENPT   ................      0.01    3.54             0.00    0.44             0.11    7.19
     1  PTBAS   ................      0.00    0.85             0.00    1.01             0.01    0.55
    12  FOCKY   ................      0.01   48.33             0.00   11.78             0.03   22.77
    12  FOCKTR  ................      0.00    1.59             0.00    0.36             0.00    0.38
    12  FOCKNM  ................      0.00    0.16             0.00    0.05             0.00    0.04
    12  SDIIS   ................      0.00    2.34             0.00    1.74             0.02   12.44
    12  EMERGE  ................      0.01   17.47             0.00   13.33             0.02   11.82
     1  COREPS  ................      0.01    1.84             0.00    0.32             0.04    2.60
     1  POPAN   ................      0.00    1.35             0.00    0.00             0.07    4.21
     1  DEBYE   ................      0.00    0.39             0.00    0.00             0.03    1.93
     1  QMPOT   ................      0.00    1.24             0.00    0.00             0.00    0.29
     1  EXIT PROCEDURE .........      0.03    8.16             0.00    3.25             0.06    3.50


 Currently Open Files (EXIT00)
 ====================

 Unit    Access Format  Status   Type       Ident (file)
 -------------------------------------------------------
   3      SEQ    FORM   TRANSP  NORMAL      LOGFILE
                                          ( logfile )


 Buffered I/O statistics
 =======================
 Memory available:                     67108864
 Number of records fitting in memory:     16131
 Input :   0.9% of                         6430  *4k bytes
 Output:   8.3% of                         2767  *4k bytes
 Records from serial files evicted:           0
                    others evicted:           0
 Hash table lookups:      25047 with          0 conflicts (  0.00%)

 ***************************************************************************************************
 (LOGFILE)
 <Jan01-2013> <00:00:00>  DIRAC 2013.01  RunTime: Jan01-2013 00:00:00  Nodes: 1  Procs: 1
 <Jan01-2013> <00:00:01>  NORMAL TERMINATION
 <Jan01-2013> <00:00:01>  END
 <Jan01-2013> <00:00:01>  ADF 2013.01  RunTime: Jan01-2013 00:00:01  Nodes: 1  Procs: 1
 <Jan01-2013> <00:00:01>  Hydrogen (QZ, all electron, 5S 2P 2D)
 <Jan01-2013> <00:00:01>  RunType   : CREATE
 <Jan01-2013> <00:00:01>  Net Charge: 0 (Nuclei minus Electrons)
 <Jan01-2013> <00:00:01>  Symmetry  : ATOM
  Coordinates
    Atom         X           Y           Z   (Angstrom)
    1.H         0.000000    0.000000    0.000000
 <Jan01-2013> <00:00:01>  >>>> CORORT
 <Jan01-2013> <00:00:02>  >>>> FITINT
 <Jan01-2013> <00:00:02>  >>>> CLSMAT
 <Jan01-2013> <00:00:02>  >>>> ORTHON
 <Jan01-2013> <00:00:02>  >>>> GENPT
 <Jan01-2013> <00:00:02>  Acc.Num.Int.=  10.000
 <Jan01-2013> <00:00:02>  Block Length=  44
 <Jan01-2013> <00:00:02>  >>>> PTBAS
 <Jan01-2013> <00:00:02>  >>>> CYCLE
 <Jan01-2013> <00:00:02>    1
 <Jan01-2013> <00:00:02>    2  ErrMat   0.03803841  MaxEl  0.03078708
 <Jan01-2013> <00:00:02>    3  ErrMat   0.00916622  MaxEl -0.00901560
 <Jan01-2013> <00:00:02>    4  ErrMat   0.00035667  MaxEl  0.00031421
 <Jan01-2013> <00:00:02>    5  ErrMat   0.00000962  MaxEl -0.00000892
 <Jan01-2013> <00:00:02>    6  ErrMat   0.00000013  MaxEl  0.00000008
 <Jan01-2013> <00:00:02>    7  ErrMat   0.00000000  MaxEl  0.00000000
 <Jan01-2013> <00:00:02>  SCF converged
 <Jan01-2013> <00:00:02>    8  ErrMat   0.00000000  MaxEl  0.00000000
 <Jan01-2013> <00:00:02>   Solutions with partially occupied orbitals may not be
 <Jan01-2013> <00:00:02>   lowest in energy. You might consider lowering the
 <Jan01-2013> <00:00:02>   symmetry in the input and explicitly specifying integer
 <Jan01-2013> <00:00:02>   occupations. In that case always check that you obtain
 <Jan01-2013> <00:00:02>   an aufbau solution.
 <Jan01-2013> <00:00:02>  >>>> POPAN
 <Jan01-2013> <00:00:02>  >>>> DEBYE
 <Jan01-2013> <00:00:02>  NORMAL TERMINATION
 <Jan01-2013> <00:00:02>  END
 <Jan01-2013> <00:00:03>  DIRAC 2013.01  RunTime: Jan01-2013 00:00:03  Nodes: 1  Procs: 1
 <Jan01-2013> <00:00:03>  NORMAL TERMINATION
 <Jan01-2013> <00:00:03>  END
 <Jan01-2013> <00:00:03>  ADF 2013.01  RunTime: Jan01-2013 00:00:03  Nodes: 1  Procs: 1
 <Jan01-2013> <00:00:03>  Oxygen (QZ, all electron, 8S 4P 2D 2F)
 <Jan01-2013> <00:00:03>  RunType   : CREATE
 <Jan01-2013> <00:00:03>  Net Charge: 0 (Nuclei minus Electrons)
 <Jan01-2013> <00:00:03>  Symmetry  : ATOM
  Coordinates
    Atom         X           Y           Z   (Angstrom)
    1.O         0.000000    0.000000    0.000000
 <Jan01-2013> <00:00:04>  >>>> CORORT
 <Jan01-2013> <00:00:04>  >>>> FITINT
 <Jan01-2013> <00:00:04>  >>>> CLSMAT
 <Jan01-2013> <00:00:04>  >>>> ORTHON
 <Jan01-2013> <00:00:04>  >>>> GENPT
 <Jan01-2013> <00:00:04>  Acc.Num.Int.=  10.000
 <Jan01-2013> <00:00:04>  Block Length=  61
 <Jan01-2013> <00:00:04>  >>>> PTBAS
 <Jan01-2013> <00:00:04>  >>>> CYCLE
 <Jan01-2013> <00:00:04>    1
 <Jan01-2013> <00:00:04>    2  ErrMat   9.74921119  MaxEl  4.13901188
 <Jan01-2013> <00:00:04>    3  ErrMat   3.70162575  MaxEl -2.91656481
 <Jan01-2013> <00:00:04>    4  ErrMat   2.94969144  MaxEl -1.91814782
 <Jan01-2013> <00:00:04>    5  ErrMat   1.88970509  MaxEl -1.07111528
 <Jan01-2013> <00:00:04>    6  ErrMat   0.04645268  MaxEl -0.01876707
 <Jan01-2013> <00:00:04>    7  ErrMat   0.02377733  MaxEl  0.01063636
 <Jan01-2013> <00:00:04>    8  ErrMat   0.00251040  MaxEl -0.00114123
 <Jan01-2013> <00:00:04>    9  ErrMat   0.00000968  MaxEl -0.00000432
 <Jan01-2013> <00:00:04>   10  ErrMat   0.00000018  MaxEl  0.00000007
 <Jan01-2013> <00:00:04>   11  ErrMat   0.00000000  MaxEl  0.00000000
 <Jan01-2013> <00:00:04>  SCF converged
 <Jan01-2013> <00:00:04>   12  ErrMat   0.00000000  MaxEl  0.00000000
 <Jan01-2013> <00:00:04>   Solutions with partially occupied orbitals may not be
 <Jan01-2013> <00:00:04>   lowest in energy. You might consider lowering the
 <Jan01-2013> <00:00:04>   symmetry in the input and explicitly specifying integer
 <Jan01-2013> <00:00:04>   occupations. In that case always check that you obtain
 <Jan01-2013> <00:00:04>   an aufbau solution.
 <Jan01-2013> <00:00:04>  >>>> POPAN
 <Jan01-2013> <00:00:05>  >>>> DEBYE
 <Jan01-2013> <00:00:05>  NORMAL TERMINATION
 <Jan01-2013> <00:00:05>  END

 *******************************************************************************
 *                                                                             *
 *  -------------------------------------                                      *
 *   Amsterdam Density Functional  (ADF)         2013.01   April 2, 2013       *
 *  -------------------------------------                                      *
 *                                               Build 201304112106            *
 *                                                                             *
 *                                                                             *
 *                            =====================                            *
 *                            |                   |                            *
 *                            |     D I R A C     |                            *
 *                            |                   |                            *
 *                            =====================                            *
 *                                                                             *
 *                                                                             *
 *   Online information and documentation:  http://www.scm.com                 *
 *   E-mail:  support@scm.com   info@scm.com                                   *
 *                                                                             *
 *   Scientific publications using ADF results must be properly referenced     *
 *   See the User Manuals (or the web site) for recommended citations          *
 *   The terms and conditions of the End User License Agreement apply to       *
 *   the use of ADF, http://www.scm.com/Sales/LicAgreement.html                *
 *                                                                             *
 ****************************  x86_64_linux_intel  *****************************
 
 Licensed to: Prof. Cacier Hadad / University of Antioquia / Medellin / COLOMBIA
 SCM User ID: u15319
  
 DIRAC 2013.01  RunTime: Jan01-2013 00:00:05  Nodes: 1  Procs: 1

 Temporary files are created in /tmp/kid_0.N2BaHQ

1
 MERCURY ATOM all electron RELATIVISTIC, Point Nuc, A and c f
 N J RN H ZN XION ANUC CLIGHT
 5000   22100.00000000197.36710137 80.00000000  0.00000000  201.970625  0.1370360E+03
  PH   PHI     EPS        DEL        DELRVR
  0.30  0.30     2500.00  0.00001000  0.00001000
 IDIRC  NC1  NDEBU NPRIN  IPUN IRCOR IWCOR
   1   300     0     0     0     0     0
   XALPHA      XLATTER      RNUC
  0.70000000  0.00000000  0.00000000 Point Charge
   XN   XL   XJ      XE          XZ      XDELL
  1.0  0.0  0.5   -2600.000       2.000     0.00000
  2.0  0.0  0.5    -425.000       2.000     0.00000
  2.0  1.0  0.5    -425.000       2.000     0.00000
  2.0  1.0  1.5    -425.000       4.000     0.00000
  3.0  0.0  0.5    -100.000       2.000     0.00000
  3.0  1.0  0.5    -100.000       2.000     0.00000
  3.0  1.0  1.5    -100.000       4.000     0.00000
  3.0  2.0  1.5     -80.000       4.000     0.00000
  3.0  2.0  2.5     -80.000       6.000     0.00000
  4.0  0.0  0.5     -22.000       2.000     0.00000
  4.0  1.0  0.5     -20.000       2.000     0.00000
  4.0  1.0  1.5     -20.000       4.000     0.00000
  4.0  2.0  1.5     -11.000       4.000     0.00000
  4.0  2.0  2.5     -11.000       6.000     0.00000
  5.0  0.0  0.5      -3.000       2.000     0.00000
  5.0  1.0  0.5      -2.200       2.000     0.00000
  5.0  1.0  1.5      -2.200       4.000     0.00000
  4.0  3.0  2.5      -1.000       6.000     0.00000
  4.0  3.0  3.5      -1.000       8.000     0.00000
  5.0  2.0  1.5      -0.500       4.000     0.00000
  5.0  2.0  2.5      -0.500       6.000     0.00000
  6.0  0.0  0.5      -0.200       2.000     0.00000
 ICORP=  0  NPCL=  0  DEMP=0.00  PEPS=0.000000
 R(1)=  0.1000000E-08 D=  0.1005080E+01 RNUC=  0.0000000E+00
 converged at cycle   71  DENSITY AVERAGING    0.0786
  MAXIMUM ERROR IN R.V(R) IS   0.62886379E-05
 Q,EY,EV,EZ,ESUM,ETOT,RHO  0.800000E+02 -0.496572E+03 -0.348382E+05 -0.496228E+05 -0.121443E+05 -0.196607E+05  0.241251E-08


 DIRAC CALCULATION
1                    MERCURY ATOM all electron RELATIVISTIC, Point Nuc, A and c from libtc


 EXCHANGE COEFFICIENT=  0.7000000           TAIL CORRECTION=  0.           NUCLEAR RADIUS=  0.000E+00
0                       ORBITAL    N    L    J     ELECTRONS     EIGENVALUE                DELTA OF EIGENV.

                          1S1/2  1.0  0.0  0.5     2.000       -0.3050991E+04                 0.4924760E-04
                          2S1/2  2.0  0.0  0.5     2.000       -0.5405089E+03                 0.4254074E-04
                          2P1/2  2.0  1.0  0.5     2.000       -0.5187363E+03                 0.4411548E-04
                          2P3/2  2.0  1.0  1.5     4.000       -0.4471398E+03                 0.4301762E-04
                          3S1/2  3.0  0.0  0.5     2.000       -0.1282616E+03                 0.3041592E-04
                          3P1/2  3.0  1.0  0.5     2.000       -0.1184367E+03                 0.3137989E-04
                          3P3/2  3.0  1.0  1.5     4.000       -0.1025748E+03                 0.2995242E-04
                          3D3/2  3.0  2.0  1.5     4.000       -0.8626975E+02                 0.3222472E-04
                          3D5/2  3.0  2.0  2.5     6.000       -0.8286728E+02                 0.3175282E-04
                          4S1/2  4.0  0.0  0.5     2.000       -0.2816781E+02                 0.1668735E-04
                          4P1/2  4.0  1.0  0.5     2.000       -0.2395484E+02                 0.1669817E-04
                          4P3/2  4.0  1.0  1.5     4.000       -0.2011425E+02                 0.1516031E-04
                          4D3/2  4.0  2.0  1.5     4.000       -0.1321824E+02                 0.1506585E-04
                          4D5/2  4.0  2.0  2.5     6.000       -0.1250170E+02                 0.1460097E-04
                          5S1/2  5.0  0.0  0.5     2.000       -0.4322160E+01                 0.4190347E-05
                          5P1/2  5.0  1.0  0.5     2.000       -0.2925196E+01                 0.3615407E-05
                          5P3/2  5.0  1.0  1.5     4.000       -0.2244086E+01                 0.2893507E-05
                          4F5/2  4.0  3.0  2.5     6.000       -0.3611586E+01                 0.1388062E-04
                          4F7/2  4.0  3.0  3.5     8.000       -0.3456598E+01                 0.1362401E-04
                          5D3/2  5.0  2.0  1.5     4.000       -0.3813662E+00                 0.1502810E-05
                          5D5/2  5.0  2.0  2.5     6.000       -0.3130964E+00                 0.1345942E-05
                          6S1/2  6.0  0.0  0.5     2.000       -0.2314499E+00                 0.2838078E-06


                                        NUCLEAR CHARGE=   80.000000
                            INTEGRAL OF CHARGE DENSITY=   80.000000
                           SUM OF THE ORBITAL ENERGIES= -12144.2566
                                          TOTAL ENERGY= -19660.7046
                                        KINETIC ENERGY=  22693.9156
                             NUCLEAR ATTRACTION ENERGY= -49622.7822
                             ELECTRON REPULSION ENERGY=   7640.5911
                                       EXCHANGE ENERGY=   -372.4292

 *******************************************************************************

                             D I R A C   E X I T
 NORMAL TERMINATION



 =================
 Timing Statistics
 =================
  
 Total Used :                     CPU=        0.98      System=        0.03     Elapsed=        1.20

 Calls  Section                     ( Mean, Percentage )
 ---------------------------------------------------------------------------------------------------
[...]
    3.H         2.536426    0.652793    0.494815
    4.H         2.550725   -0.434644   -0.684894
    5.O        -2.054798   -0.106318   -0.117075
    6.H        -2.546990    0.694278   -0.433967
    7.H        -2.550654   -0.495978    0.641955
 <Jan01-2013> <00:28:49>  >>>> CORORT
 <Jan01-2013> <00:28:49>  >>>> FITINT
 <Jan01-2013> <00:28:50>  >>>> CLSMAT
 <Jan01-2013> <00:28:52>  >>>> ORTHON
 <Jan01-2013> <00:28:52>  >>>> GENPT
 <Jan01-2013> <00:28:52>  Acc.Num.Int.=   6.000
 <Jan01-2013> <00:28:52>  Reusing previous cell geometry for gradient smoothing.
 <Jan01-2013> <00:28:52>  Block Length= 128
 <Jan01-2013> <00:28:53>  >>>> PTBAS
 <Jan01-2013> <00:29:04>  >>>> CYCLE
 <Jan01-2013> <00:29:05>    1
 <Jan01-2013> <00:29:07>    2  ErrMat   0.01754150  MaxEl  0.00350384
 <Jan01-2013> <00:29:09>    3  ErrMat   0.00929245  MaxEl -0.00184911
 <Jan01-2013> <00:29:11>    4  ErrMat   0.00739299  MaxEl -0.00141780
 <Jan01-2013> <00:29:13>    5  ErrMat   0.00193484  MaxEl -0.00023391
 <Jan01-2013> <00:29:15>    6  ErrMat   0.00044079  MaxEl  0.00004470
 <Jan01-2013> <00:29:17>    7  ErrMat   0.00015055  MaxEl  0.00002488
 <Jan01-2013> <00:29:19>    8  ErrMat   0.00008616  MaxEl -0.00001201
 <Jan01-2013> <00:29:23>    9  ErrMat   0.00000645  MaxEl  0.00000080
 <Jan01-2013> <00:29:24>  SCF converged
 <Jan01-2013> <00:29:25>   10  ErrMat   0.00000348  MaxEl -0.00000038
 <Jan01-2013> <00:29:27>  >>>> TOTEN
 <Jan01-2013> <00:29:29>  >>>> POPAN
 <Jan01-2013> <00:29:29>  >>>> DEBYE
 <Jan01-2013> <00:29:29>  >>>> AMETS
 <Jan01-2013> <00:29:29>  >>>> ENGRAD
  Coordinates in Frequency Displacement 32
    Atom         X           Y           Z   (Angstrom)
    1.Hg       -0.000082   -0.029616   -0.001848
    2.O         2.054672   -0.115947    0.106434
    3.H         2.536426    0.652793    0.494815
    4.H         2.550725   -0.434644   -0.684894
    5.O        -2.054798   -0.106318   -0.117075
    6.H        -2.526990    0.694278   -0.433967
    7.H        -2.550654   -0.495978    0.641955
 <Jan01-2013> <00:29:48>  >>>> CORORT
 <Jan01-2013> <00:29:48>  >>>> FITINT
 <Jan01-2013> <00:29:49>  >>>> CLSMAT
 <Jan01-2013> <00:29:52>  >>>> ORTHON
 <Jan01-2013> <00:29:52>  >>>> GENPT
 <Jan01-2013> <00:29:52>  Acc.Num.Int.=   6.000
 <Jan01-2013> <00:29:52>  Reusing previous cell geometry for gradient smoothing.
 <Jan01-2013> <00:29:52>  Block Length= 128
 <Jan01-2013> <00:29:52>  >>>> PTBAS
 <Jan01-2013> <00:30:04>  >>>> CYCLE
 <Jan01-2013> <00:30:05>    1
 <Jan01-2013> <00:30:06>    2  ErrMat   0.00012481  MaxEl -0.00002364
 <Jan01-2013> <00:30:09>    3  ErrMat   0.00006186  MaxEl  0.00001084
 <Jan01-2013> <00:30:11>    4  ErrMat   0.00004252  MaxEl  0.00000775
 <Jan01-2013> <00:30:13>    5  ErrMat   0.00001242  MaxEl  0.00000211
 <Jan01-2013> <00:30:15>    6  ErrMat   0.00000305  MaxEl  0.00000054
 <Jan01-2013> <00:30:16>  SCF converged
 <Jan01-2013> <00:30:17>    7  ErrMat   0.00000165  MaxEl -0.00000022
 <Jan01-2013> <00:30:19>  >>>> TOTEN
 <Jan01-2013> <00:30:22>  >>>> POPAN
 <Jan01-2013> <00:30:22>  >>>> DEBYE
 <Jan01-2013> <00:30:23>  >>>> AMETS
 <Jan01-2013> <00:30:23>  >>>> ENGRAD
  Coordinates in Frequency Displacement 33
    Atom         X           Y           Z   (Angstrom)
    1.Hg       -0.000082   -0.029616   -0.001848
    2.O         2.054672   -0.115947    0.106434
    3.H         2.536426    0.652793    0.494815
    4.H         2.550725   -0.434644   -0.684894
    5.O        -2.054798   -0.106318   -0.117075
    6.H        -2.536990    0.684278   -0.433967
    7.H        -2.550654   -0.495978    0.641955
 <Jan01-2013> <00:30:40>  >>>> CORORT
 <Jan01-2013> <00:30:40>  >>>> FITINT
 <Jan01-2013> <00:30:41>  >>>> CLSMAT
 <Jan01-2013> <00:30:44>  >>>> ORTHON
 <Jan01-2013> <00:30:44>  >>>> GENPT
 <Jan01-2013> <00:30:44>  Acc.Num.Int.=   6.000
 <Jan01-2013> <00:30:44>  Reusing previous cell geometry for gradient smoothing.
 <Jan01-2013> <00:30:44>  Block Length= 128
 <Jan01-2013> <00:30:44>  >>>> PTBAS
 <Jan01-2013> <00:30:56>  >>>> CYCLE
 <Jan01-2013> <00:30:57>    1
 <Jan01-2013> <00:30:59>    2  ErrMat   0.02102874  MaxEl -0.00465890
 <Jan01-2013> <00:31:01>    3  ErrMat   0.00969115  MaxEl -0.00204480
 <Jan01-2013> <00:31:03>    4  ErrMat   0.00605910  MaxEl -0.00098430
 <Jan01-2013> <00:31:05>    5  ErrMat   0.00219358  MaxEl -0.00032949
 <Jan01-2013> <00:31:07>    6  ErrMat   0.00053041  MaxEl  0.00009459
 <Jan01-2013> <00:31:09>    7  ErrMat   0.00022255  MaxEl -0.00003283
 <Jan01-2013> <00:31:11>    8  ErrMat   0.00004549  MaxEl -0.00000527
 <Jan01-2013> <00:31:13>    9  ErrMat   0.00000846  MaxEl  0.00000098
 <Jan01-2013> <00:31:14>  SCF converged
 <Jan01-2013> <00:31:15>   10  ErrMat   0.00000219  MaxEl  0.00000028
 <Jan01-2013> <00:31:17>  >>>> TOTEN
 <Jan01-2013> <00:31:20>  >>>> POPAN
 <Jan01-2013> <00:31:20>  >>>> DEBYE
 <Jan01-2013> <00:31:20>  >>>> AMETS
 <Jan01-2013> <00:31:20>  >>>> ENGRAD
  Coordinates in Frequency Displacement 34
    Atom         X           Y           Z   (Angstrom)
    1.Hg       -0.000082   -0.029616   -0.001848
    2.O         2.054672   -0.115947    0.106434
    3.H         2.536426    0.652793    0.494815
    4.H         2.550725   -0.434644   -0.684894
    5.O        -2.054798   -0.106318   -0.117075
    6.H        -2.536990    0.704278   -0.433967
    7.H        -2.550654   -0.495978    0.641955
 <Jan01-2013> <00:31:39>  >>>> CORORT
 <Jan01-2013> <00:31:39>  >>>> FITINT
 <Jan01-2013> <00:31:40>  >>>> CLSMAT
 <Jan01-2013> <00:31:42>  >>>> ORTHON
 <Jan01-2013> <00:31:42>  >>>> GENPT
 <Jan01-2013> <00:31:42>  Acc.Num.Int.=   6.000
 <Jan01-2013> <00:31:42>  Reusing previous cell geometry for gradient smoothing.
 <Jan01-2013> <00:31:43>  Block Length= 128
 <Jan01-2013> <00:31:43>  >>>> PTBAS
 <Jan01-2013> <00:31:54>  >>>> CYCLE
 <Jan01-2013> <00:31:55>    1
 <Jan01-2013> <00:31:57>    2  ErrMat   0.00019548  MaxEl -0.00003702
 <Jan01-2013> <00:31:59>    3  ErrMat   0.00008380  MaxEl -0.00001456
 <Jan01-2013> <00:32:01>    4  ErrMat   0.00004778  MaxEl  0.00000792
 <Jan01-2013> <00:32:03>    5  ErrMat   0.00001801  MaxEl -0.00000320
 <Jan01-2013> <00:32:05>    6  ErrMat   0.00000603  MaxEl  0.00000110
 <Jan01-2013> <00:32:07>    7  ErrMat   0.00000175  MaxEl -0.00000020
 <Jan01-2013> <00:32:07>  SCF converged
 <Jan01-2013> <00:32:08>    8  ErrMat   0.00000049  MaxEl -0.00000005
 <Jan01-2013> <00:32:10>  >>>> TOTEN
 <Jan01-2013> <00:32:13>  >>>> POPAN
 <Jan01-2013> <00:32:13>  >>>> DEBYE
 <Jan01-2013> <00:32:13>  >>>> AMETS
 <Jan01-2013> <00:32:13>  >>>> ENGRAD
  Coordinates in Frequency Displacement 35
    Atom         X           Y           Z   (Angstrom)
    1.Hg       -0.000082   -0.029616   -0.001848
    2.O         2.054672   -0.115947    0.106434
    3.H         2.536426    0.652793    0.494815
    4.H         2.550725   -0.434644   -0.684894
    5.O        -2.054798   -0.106318   -0.117075
    6.H        -2.536990    0.694278   -0.443967
    7.H        -2.550654   -0.495978    0.641955
 <Jan01-2013> <00:32:32>  >>>> CORORT
 <Jan01-2013> <00:32:32>  >>>> FITINT
 <Jan01-2013> <00:32:32>  >>>> CLSMAT
 <Jan01-2013> <00:32:35>  >>>> ORTHON
 <Jan01-2013> <00:32:35>  >>>> GENPT
 <Jan01-2013> <00:32:35>  Acc.Num.Int.=   6.000
 <Jan01-2013> <00:32:35>  Reusing previous cell geometry for gradient smoothing.
 <Jan01-2013> <00:32:35>  Block Length= 128
 <Jan01-2013> <00:32:35>  >>>> PTBAS
 <Jan01-2013> <00:32:47>  >>>> CYCLE
 <Jan01-2013> <00:32:48>    1
 <Jan01-2013> <00:32:50>    2  ErrMat   0.01437744  MaxEl -0.00351395
 <Jan01-2013> <00:32:52>    3  ErrMat   0.00868703  MaxEl -0.00230539
 <Jan01-2013> <00:32:54>    4  ErrMat   0.00711990  MaxEl -0.00137356
 <Jan01-2013> <00:32:56>    5  ErrMat   0.00152307  MaxEl -0.00025866
 <Jan01-2013> <00:32:57>    6  ErrMat   0.00031400  MaxEl -0.00006147
 <Jan01-2013> <00:32:59>    7  ErrMat   0.00021180  MaxEl  0.00003942
 <Jan01-2013> <00:33:02>    8  ErrMat   0.00002372  MaxEl  0.00000233
 <Jan01-2013> <00:33:04>    9  ErrMat   0.00000912  MaxEl -0.00000088
 <Jan01-2013> <00:33:05>  SCF converged
 <Jan01-2013> <00:33:06>   10  ErrMat   0.00000113  MaxEl -0.00000015
 <Jan01-2013> <00:33:08>  >>>> TOTEN
 <Jan01-2013> <00:33:11>  >>>> POPAN
 <Jan01-2013> <00:33:11>  >>>> DEBYE
 <Jan01-2013> <00:33:11>  >>>> AMETS
 <Jan01-2013> <00:33:11>  >>>> ENGRAD
  Coordinates in Frequency Displacement 36
    Atom         X           Y           Z   (Angstrom)
    1.Hg       -0.000082   -0.029616   -0.001848
    2.O         2.054672   -0.115947    0.106434
    3.H         2.536426    0.652793    0.494815
    4.H         2.550725   -0.434644   -0.684894
    5.O        -2.054798   -0.106318   -0.117075
    6.H        -2.536990    0.694278   -0.423967
    7.H        -2.550654   -0.495978    0.641955
 <Jan01-2013> <00:33:30>  >>>> CORORT
 <Jan01-2013> <00:33:30>  >>>> FITINT
 <Jan01-2013> <00:33:31>  >>>> CLSMAT
 <Jan01-2013> <00:33:33>  >>>> ORTHON
 <Jan01-2013> <00:33:33>  >>>> GENPT
 <Jan01-2013> <00:33:33>  Acc.Num.Int.=   6.000
 <Jan01-2013> <00:33:33>  Reusing previous cell geometry for gradient smoothing.
 <Jan01-2013> <00:33:33>  Block Length= 128
 <Jan01-2013> <00:33:33>  >>>> PTBAS
 <Jan01-2013> <00:33:45>  >>>> CYCLE
 <Jan01-2013> <00:33:46>    1
 <Jan01-2013> <00:33:48>    2  ErrMat   0.00006650  MaxEl  0.00001304
 <Jan01-2013> <00:33:50>    3  ErrMat   0.00003853  MaxEl  0.00000881
 <Jan01-2013> <00:33:52>    4  ErrMat   0.00003242  MaxEl  0.00000547
 <Jan01-2013> <00:33:54>    5  ErrMat   0.00000536  MaxEl -0.00000102
 <Jan01-2013> <00:33:56>    6  ErrMat   0.00000291  MaxEl  0.00000055
 <Jan01-2013> <00:33:57>  SCF converged
 <Jan01-2013> <00:33:58>    7  ErrMat   0.00000059  MaxEl  0.00000008
 <Jan01-2013> <00:34:00>  >>>> TOTEN
 <Jan01-2013> <00:34:02>  >>>> POPAN
 <Jan01-2013> <00:34:03>  >>>> DEBYE
 <Jan01-2013> <00:34:03>  >>>> AMETS
 <Jan01-2013> <00:34:03>  >>>> ENGRAD
  Coordinates in Frequency Displacement 37
    Atom         X           Y           Z   (Angstrom)
    1.Hg       -0.000082   -0.029616   -0.001848
    2.O         2.054672   -0.115947    0.106434
    3.H         2.536426    0.652793    0.494815
    4.H         2.550725   -0.434644   -0.684894
    5.O        -2.054798   -0.106318   -0.117075
    6.H        -2.536990    0.694278   -0.433967
    7.H        -2.560654   -0.495978    0.641955
 <Jan01-2013> <00:34:22>  >>>> CORORT
 <Jan01-2013> <00:34:22>  >>>> FITINT
 <Jan01-2013> <00:34:23>  >>>> CLSMAT
 <Jan01-2013> <00:34:26>  >>>> ORTHON
 <Jan01-2013> <00:34:26>  >>>> GENPT
 <Jan01-2013> <00:34:26>  Acc.Num.Int.=   6.000
 <Jan01-2013> <00:34:26>  Reusing previous cell geometry for gradient smoothing.
 <Jan01-2013> <00:34:26>  Block Length= 128
 <Jan01-2013> <00:34:26>  >>>> PTBAS
 <Jan01-2013> <00:34:38>  >>>> CYCLE
 <Jan01-2013> <00:34:39>    1
 <Jan01-2013> <00:34:41>    2  ErrMat   0.01775265  MaxEl  0.00340467
 <Jan01-2013> <00:34:43>    3  ErrMat   0.00936839  MaxEl -0.00186390
 <Jan01-2013> <00:34:44>    4  ErrMat   0.00734888  MaxEl -0.00143760
 <Jan01-2013> <00:34:46>    5  ErrMat   0.00199700  MaxEl -0.00024309
 <Jan01-2013> <00:34:48>    6  ErrMat   0.00043898  MaxEl -0.00004696
 <Jan01-2013> <00:34:50>    7  ErrMat   0.00016375  MaxEl  0.00002778
 <Jan01-2013> <00:34:52>    8  ErrMat   0.00008523  MaxEl -0.00001190
 <Jan01-2013> <00:34:54>    9  ErrMat   0.00000635  MaxEl  0.00000069
 <Jan01-2013> <00:34:55>  SCF converged
 <Jan01-2013> <00:34:56>   10  ErrMat   0.00000346  MaxEl  0.00000039
 <Jan01-2013> <00:34:58>  >>>> TOTEN
 <Jan01-2013> <00:35:00>  >>>> POPAN
 <Jan01-2013> <00:35:00>  >>>> DEBYE
 <Jan01-2013> <00:35:00>  >>>> AMETS
 <Jan01-2013> <00:35:01>  >>>> ENGRAD
  Coordinates in Frequency Displacement 38
    Atom         X           Y           Z   (Angstrom)
    1.Hg       -0.000082   -0.029616   -0.001848
    2.O         2.054672   -0.115947    0.106434
    3.H         2.536426    0.652793    0.494815
    4.H         2.550725   -0.434644   -0.684894
    5.O        -2.054798   -0.106318   -0.117075
    6.H        -2.536990    0.694278   -0.433967
    7.H        -2.540654   -0.495978    0.641955
 <Jan01-2013> <00:35:21>  >>>> CORORT
 <Jan01-2013> <00:35:21>  >>>> FITINT
 <Jan01-2013> <00:35:22>  >>>> CLSMAT
 <Jan01-2013> <00:35:25>  >>>> ORTHON
 <Jan01-2013> <00:35:26>  >>>> GENPT
 <Jan01-2013> <00:35:26>  Acc.Num.Int.=   6.000
 <Jan01-2013> <00:35:26>  Reusing previous cell geometry for gradient smoothing.
 <Jan01-2013> <00:35:27>  Block Length= 128
 <Jan01-2013> <00:35:27>  >>>> PTBAS
 <Jan01-2013> <00:35:39>  >>>> CYCLE
 <Jan01-2013> <00:35:39>    1
 <Jan01-2013> <00:35:41>    2  ErrMat   0.00012926  MaxEl -0.00002368
 <Jan01-2013> <00:35:43>    3  ErrMat   0.00006390  MaxEl  0.00001122
 <Jan01-2013> <00:35:45>    4  ErrMat   0.00004360  MaxEl  0.00000811
 <Jan01-2013> <00:35:47>    5  ErrMat   0.00001315  MaxEl  0.00000219
 <Jan01-2013> <00:35:49>    6  ErrMat   0.00000310  MaxEl  0.00000055
 <Jan01-2013> <00:35:50>  SCF converged
 <Jan01-2013> <00:35:51>    7  ErrMat   0.00000178  MaxEl -0.00000025
 <Jan01-2013> <00:35:53>  >>>> TOTEN
 <Jan01-2013> <00:35:55>  >>>> POPAN
 <Jan01-2013> <00:35:55>  >>>> DEBYE
 <Jan01-2013> <00:35:56>  >>>> AMETS
 <Jan01-2013> <00:35:56>  >>>> ENGRAD
  Coordinates in Frequency Displacement 39
    Atom         X           Y           Z   (Angstrom)
    1.Hg       -0.000082   -0.029616   -0.001848
    2.O         2.054672   -0.115947    0.106434
    3.H         2.536426    0.652793    0.494815
    4.H         2.550725   -0.434644   -0.684894
    5.O        -2.054798   -0.106318   -0.117075
    6.H        -2.536990    0.694278   -0.433967
    7.H        -2.550654   -0.505978    0.641955
 <Jan01-2013> <00:36:14>  >>>> CORORT
 <Jan01-2013> <00:36:14>  >>>> FITINT
 <Jan01-2013> <00:36:15>  >>>> CLSMAT
 <Jan01-2013> <00:36:18>  >>>> ORTHON
 <Jan01-2013> <00:36:18>  >>>> GENPT
 <Jan01-2013> <00:36:18>  Acc.Num.Int.=   6.000
 <Jan01-2013> <00:36:18>  Reusing previous cell geometry for gradient smoothing.
 <Jan01-2013> <00:36:18>  Block Length= 128
 <Jan01-2013> <00:36:18>  >>>> PTBAS
 <Jan01-2013> <00:36:30>  >>>> CYCLE
 <Jan01-2013> <00:36:31>    1
 <Jan01-2013> <00:36:33>    2  ErrMat   0.01517622  MaxEl -0.00303997
 <Jan01-2013> <00:36:35>    3  ErrMat   0.00883751  MaxEl -0.00200310
 <Jan01-2013> <00:36:37>    4  ErrMat   0.00763954  MaxEl  0.00143590
 <Jan01-2013> <00:36:38>    5  ErrMat   0.00152188  MaxEl  0.00023641
 <Jan01-2013> <00:36:40>    6  ErrMat   0.00033341  MaxEl -0.00006511
 <Jan01-2013> <00:36:42>    7  ErrMat   0.00021159  MaxEl  0.00003635
 <Jan01-2013> <00:36:46>    8  ErrMat   0.00002256  MaxEl -0.00000225
 <Jan01-2013> <00:36:48>    9  ErrMat   0.00000918  MaxEl -0.00000092
 <Jan01-2013> <00:36:49>  SCF converged
 <Jan01-2013> <00:36:50>   10  ErrMat   0.00000137  MaxEl  0.00000013
 <Jan01-2013> <00:36:52>  >>>> TOTEN
 <Jan01-2013> <00:36:54>  >>>> POPAN
 <Jan01-2013> <00:36:54>  >>>> DEBYE
 <Jan01-2013> <00:36:54>  >>>> AMETS
 <Jan01-2013> <00:36:54>  >>>> ENGRAD
  Coordinates in Frequency Displacement 40
    Atom         X           Y           Z   (Angstrom)
    1.Hg       -0.000082   -0.029616   -0.001848
    2.O         2.054672   -0.115947    0.106434
    3.H         2.536426    0.652793    0.494815
    4.H         2.550725   -0.434644   -0.684894
    5.O        -2.054798   -0.106318   -0.117075
    6.H        -2.536990    0.694278   -0.433967
    7.H        -2.550654   -0.485978    0.641955
 <Jan01-2013> <00:37:13>  >>>> CORORT
 <Jan01-2013> <00:37:13>  >>>> FITINT
 <Jan01-2013> <00:37:14>  >>>> CLSMAT
 <Jan01-2013> <00:37:16>  >>>> ORTHON
 <Jan01-2013> <00:37:17>  >>>> GENPT
 <Jan01-2013> <00:37:17>  Acc.Num.Int.=   6.000
 <Jan01-2013> <00:37:17>  Reusing previous cell geometry for gradient smoothing.
 <Jan01-2013> <00:37:17>  Block Length= 128
 <Jan01-2013> <00:37:17>  >>>> PTBAS
 <Jan01-2013> <00:37:28>  >>>> CYCLE
 <Jan01-2013> <00:37:29>    1
 <Jan01-2013> <00:37:31>    2  ErrMat   0.00008796  MaxEl  0.00001381
 <Jan01-2013> <00:37:33>    3  ErrMat   0.00004731  MaxEl  0.00000938
 <Jan01-2013> <00:37:35>    4  ErrMat   0.00003528  MaxEl  0.00000572
 <Jan01-2013> <00:37:37>    5  ErrMat   0.00000767  MaxEl -0.00000149
 <Jan01-2013> <00:37:39>    6  ErrMat   0.00000313  MaxEl  0.00000060
 <Jan01-2013> <00:37:40>  SCF converged
 <Jan01-2013> <00:37:41>    7  ErrMat   0.00000081  MaxEl -0.00000007
 <Jan01-2013> <00:37:42>  >>>> TOTEN
 <Jan01-2013> <00:37:45>  >>>> POPAN
 <Jan01-2013> <00:37:45>  >>>> DEBYE
 <Jan01-2013> <00:37:45>  >>>> AMETS
 <Jan01-2013> <00:37:45>  >>>> ENGRAD
  Coordinates in Frequency Displacement 41
    Atom         X           Y           Z   (Angstrom)
    1.Hg       -0.000082   -0.029616   -0.001848
    2.O         2.054672   -0.115947    0.106434
    3.H         2.536426    0.652793    0.494815
    4.H         2.550725   -0.434644   -0.684894
    5.O        -2.054798   -0.106318   -0.117075
    6.H        -2.536990    0.694278   -0.433967
    7.H        -2.550654   -0.495978    0.631955
 <Jan01-2013> <00:38:05>  >>>> CORORT
 <Jan01-2013> <00:38:05>  >>>> FITINT
 <Jan01-2013> <00:38:05>  >>>> CLSMAT
 <Jan01-2013> <00:38:08>  >>>> ORTHON
 <Jan01-2013> <00:38:08>  >>>> GENPT
 <Jan01-2013> <00:38:08>  Acc.Num.Int.=   6.000
 <Jan01-2013> <00:38:08>  Reusing previous cell geometry for gradient smoothing.
 <Jan01-2013> <00:38:08>  Block Length= 128
 <Jan01-2013> <00:38:08>  >>>> PTBAS
 <Jan01-2013> <00:38:20>  >>>> CYCLE
 <Jan01-2013> <00:38:21>    1
 <Jan01-2013> <00:38:23>    2  ErrMat   0.02049673  MaxEl -0.00414189
 <Jan01-2013> <00:38:25>    3  ErrMat   0.00957935  MaxEl -0.00191202
 <Jan01-2013> <00:38:27>    4  ErrMat   0.00616622  MaxEl -0.00100167
 <Jan01-2013> <00:38:28>    5  ErrMat   0.00209812  MaxEl -0.00032806
 <Jan01-2013> <00:38:30>    6  ErrMat   0.00053416  MaxEl  0.00009238
 <Jan01-2013> <00:38:32>    7  ErrMat   0.00021548  MaxEl -0.00003075
 <Jan01-2013> <00:38:34>    8  ErrMat   0.00004451  MaxEl  0.00000491
 <Jan01-2013> <00:38:36>    9  ErrMat   0.00000850  MaxEl -0.00000099
 <Jan01-2013> <00:38:37>  SCF converged
 <Jan01-2013> <00:38:38>   10  ErrMat   0.00000221  MaxEl  0.00000029
 <Jan01-2013> <00:38:40>  >>>> TOTEN
 <Jan01-2013> <00:38:42>  >>>> POPAN
 <Jan01-2013> <00:38:42>  >>>> DEBYE
 <Jan01-2013> <00:38:42>  >>>> AMETS
 <Jan01-2013> <00:38:42>  >>>> ENGRAD
  Coordinates in Frequency Displacement 42
    Atom         X           Y           Z   (Angstrom)
    1.Hg       -0.000082   -0.029616   -0.001848
    2.O         2.054672   -0.115947    0.106434
    3.H         2.536426    0.652793    0.494815
    4.H         2.550725   -0.434644   -0.684894
    5.O        -2.054798   -0.106318   -0.117075
    6.H        -2.536990    0.694278   -0.433967
    7.H        -2.550654   -0.495978    0.651955
 <Jan01-2013> <00:39:01>  >>>> CORORT
 <Jan01-2013> <00:39:01>  >>>> FITINT
 <Jan01-2013> <00:39:02>  >>>> CLSMAT
 <Jan01-2013> <00:39:04>  >>>> ORTHON
 <Jan01-2013> <00:39:04>  >>>> GENPT
 <Jan01-2013> <00:39:04>  Acc.Num.Int.=   6.000
 <Jan01-2013> <00:39:04>  Reusing previous cell geometry for gradient smoothing.
 <Jan01-2013> <00:39:04>  Block Length= 128
 <Jan01-2013> <00:39:04>  >>>> PTBAS
 <Jan01-2013> <00:39:16>  >>>> CYCLE
 <Jan01-2013> <00:39:17>    1
 <Jan01-2013> <00:39:19>    2  ErrMat   0.00018310  MaxEl -0.00003325
 <Jan01-2013> <00:39:21>    3  ErrMat   0.00008039  MaxEl -0.00001284
 <Jan01-2013> <00:39:23>    4  ErrMat   0.00004618  MaxEl  0.00000781
 <Jan01-2013> <00:39:25>    5  ErrMat   0.00001795  MaxEl -0.00000316
 <Jan01-2013> <00:39:28>    6  ErrMat   0.00000539  MaxEl  0.00000101
 <Jan01-2013> <00:39:30>    7  ErrMat   0.00000183  MaxEl -0.00000022
 <Jan01-2013> <00:39:31>  SCF converged
 <Jan01-2013> <00:39:32>    8  ErrMat   0.00000044  MaxEl  0.00000004
 <Jan01-2013> <00:39:34>  >>>> TOTEN
 <Jan01-2013> <00:39:36>  >>>> POPAN
 <Jan01-2013> <00:39:36>  >>>> DEBYE
 <Jan01-2013> <00:39:36>  >>>> AMETS
 <Jan01-2013> <00:39:36>  >>>> ENGRAD
 <Jan01-2013> <00:39:54>  Force Constants computed
 <Jan01-2013> <00:39:55>  NORMAL TERMINATION
 <Jan01-2013> <00:39:55>  END
