
 *******************************************************************************
 *                                                                             *
 *  -------------------------------------                                      *
 *   Amsterdam Density Functional  (ADF)         2013.01   April 2, 2013       *
 *  -------------------------------------                                      *
 *                                               Build 201304112106            *
 *                                                                             *
 *                                                                             *
 *                            =====================                            *
 *                            |                   |                            *
 *                            |     D I R A C     |                            *
 *                            |                   |                            *
 *                            =====================                            *
 *                                                                             *
 *                                                                             *
 *   Online information and documentation:  http://www.scm.com                 *
 *   E-mail:  support@scm.com   info@scm.com                                   *
 *                                                                             *
 *   Scientific publications using ADF results must be properly referenced     *
 *   See the User Manuals (or the web site) for recommended citations          *
 *   The terms and conditions of the End User License Agreement apply to       *
 *   the use of ADF, http://www.scm.com/Sales/LicAgreement.html                *
 *                                                                             *
 ****************************  x86_64_linux_intel  *****************************
 
 Licensed to: Prof. Cacier Hadad / University of Antioquia / Medellin / COLOMBIA
 SCM User ID: u15319
  
 DIRAC 2013.01  RunTime: Jan01-2013 00:00:00  Nodes: 1  Procs: 1

 Temporary files are created in /tmp/kid_0.d0ypbb

1
 HYDROGEN ATOM RELATIVISTIC, Point Nuc, A and c from libtc   
 N J RN H ZN XION ANUC CLIGHT
 5000    1100.00000000197.36710137  1.00000000  0.00000000    1.007825  0.1370360E+03
  PH   PHI     EPS        DEL        DELRVR
  0.30  0.30     2500.00  0.00001000  0.00001000
 IDIRC  NC1  NDEBU NPRIN  IPUN IRCOR IWCOR
   1   300     0     0     0     0     0
   XALPHA      XLATTER      RNUC
  0.70000000  0.00000000  0.00000000 Point Charge
   XN   XL   XJ      XE          XZ      XDELL
  1.0  0.0  0.5      -1.000       1.000     0.00000
 ICORP=  0  NPCL=  0  DEMP=0.00  PEPS=0.000000
 R(1)=  0.1000000E-08 D=  0.1005080E+01 RNUC=  0.0000000E+00
 converged at cycle   32  DENSITY AVERAGING    0.2400
  MAXIMUM ERROR IN R.V(R) IS   0.79874357E-05
 Q,EY,EV,EZ,ESUM,ETOT,RHO  0.100000E+01 -0.266614E+00 -0.619969E+00 -0.910779E+00 -0.203940E+00 -0.415998E+00  0.337036E-17


 DIRAC CALCULATION
1                    HYDROGEN ATOM RELATIVISTIC, Point Nuc, A and c from libtc


 EXCHANGE COEFFICIENT=  0.7000000           TAIL CORRECTION=  0.           NUCLEAR RADIUS=  0.000E+00
0                       ORBITAL    N    L    J     ELECTRONS     EIGENVALUE                DELTA OF EIGENV.

                          1S1/2  1.0  0.0  0.5     1.000       -0.2039397E+00                 0.2720093E-06


                                        NUCLEAR CHARGE=    1.000000
                            INTEGRAL OF CHARGE DENSITY=    1.000000
                           SUM OF THE ORBITAL ENERGIES=     -0.2039
                                          TOTAL ENERGY=     -0.4160
                                        KINETIC ENERGY=      0.4160
                             NUCLEAR ATTRACTION ENERGY=     -0.9108
                             ELECTRON REPULSION ENERGY=      0.2787
                                       EXCHANGE ENERGY=     -0.2000

 *******************************************************************************

                             D I R A C   E X I T
 NORMAL TERMINATION



 =================
 Timing Statistics
 =================
  
 Total Used :                     CPU=        0.07      System=        0.02     Elapsed=        0.28

 Calls  Section                     ( Mean, Percentage )
 ---------------------------------------------------------------------------------------------------
     2  ><      ................      0.00    0.01             0.00    0.02             0.00    0.00
     1  EXIT PROCEDURE .........      0.07   99.99             0.02   99.98             0.28  100.00


 Currently Open Files (EXIT00)
 ====================

 Unit    Access Format  Status   Type       Ident (file)
 -------------------------------------------------------
   3      SEQ    FORM   TRANSP  NORMAL      LOGFILE
                                          ( logfile )


 Buffered I/O statistics
 =======================
 Memory available:                     67108864
 Number of records fitting in memory:     16131
 Input : 100.0% of                            0  *4k bytes
 Output: 100.0% of                            0  *4k bytes
 Records from serial files evicted:           0
                    others evicted:           0
 Hash table lookups:          0 with          0 conflicts (100.00%)
(INPUT FILE)
Create H   file=/home/andyzapa/adf2013.01/atomicdata/ZORA/QZ4P/H
 XC
 GGA PBE
End
relativistic ZORA
Corepotentials t12.rel
End Input

 *******************************************************************************
 *                                                                             *
 *  -------------------------------------                                      *
 *   Amsterdam Density Functional  (ADF)         2013.01   April 2, 2013       *
 *  -------------------------------------                                      *
 *                                               Build 201304112215            *
 *                                                                             *
 *                                                                             *
 *                              =================                              *
 *                              |               |                              *
 *                              |     A D F     |                              *
 *                              |               |                              *
 *                              =================                              *
 *                                                                             *
 *                                                                             *
 *   Online information and documentation:  http://www.scm.com                 *
 *   E-mail:  support@scm.com   info@scm.com                                   *
 *                                                                             *
 *   Scientific publications using ADF results must be properly referenced     *
 *   See the User Manuals (or the web site) for recommended citations          *
 *   The terms and conditions of the End User License Agreement apply to       *
 *   the use of ADF, http://www.scm.com/Sales/LicAgreement.html                *
 *                                                                             *
 ********************  x86_64_linux_intel / platform_mpi  **********************
 
 Licensed to: Prof. Cacier Hadad / University of Antioquia / Medellin / COLOMBIA
 SCM User ID: u15319
  
 ADF 2013.01  RunTime: Jan01-2013 00:00:01  Nodes: 1  Procs: 1

 Temporary files are created in /tmp/kid_0.xxW6te

 Hydrogen (QZ, all electron, 5S 2P 2D)



 ===========================
 A T T A C H E D   F I L E S
 ===========================
  
 CREATE - Data File:    /home/andyzapa/adf2013.01/atomicdata/ZORA/QZ4P/H
                        Hydrogen (QZ, all electron, 5S 2P 2D)
 Core Potentials:
         file : t12.rel



 ===============================
 M O D E L   P A R A M E T E R S
 ===============================
  
 DENSITY FUNCTIONAL POTENTIAL (scf)
    LDA:                               PW92                                    == Not Default ==
    Gradient Corrections:              PBEc PBEx                               == Not Default ==

 SPIN  (restricted / unrestr.)
    Molecule:                          Restricted                               

 OTHER ASPECTS
    Relativistic Corrections:          scalar (ZORA,SAPA)                      == Not Default ==

    Nuclear Charge Density Model:      Point Charge Nuclei                                                                                                                                                                                     
    Core Treatment:                    Frozen Orbital(s)                        

    Hyperfine or Zeeman Interaction:   ---                                      



 =====================================
 S Y M M E T R Y ,   E L E C T R O N S
 =====================================
  
 Symmetry: ATOM

 Irreducible Representations, including subspecies
 -------------------------------------------------
 S
 P:x  P:y  P:z
 D:z2  D:x2-y2  D:xy  D:xz  D:yz
 F:z3  F:z  F:xyz  F:z2x  F:z2y  F:x  F:y


 Configuration of Valence Electrons
 ==================================

          Occupation Numbers
          -------------------------------------------------
 S        1
 P        0
 D        0
 F        0
          -------------------------------------------------

 Total:   1

 Net Charge: 0 (Nuclei minus Electrons)

 Preset values for MO occupations will be applied through SCF cycle no. 1000000
 Thereafter, the program will assign electrons to MOs that are spatially
 similar to the occupied MOs in a "reference" cycle ("KeepOrbitals").
 The reference cycle is always the PREVIOUS cycle: it will evolve with
 the SCF procedure.



 ================================
 (Slater-type)  F U N C T I O N S  ***  (Basis and Fit)  ***
 ================================
  

 Atom Type    1  (H)
 ==============

 Valence Basis Sets:   9
 -----------------------
   1 S    3.300000
   1 S    2.000000
   1 S    1.400000
   1 S    1.000000
   1 S    0.710000
   2 P    2.000000
   2 P    1.000000
   3 D    2.500000
   3 D    1.500000

 Charge Fitting Sets (for the computation of the Coulomb Potential):  22
 -----------------------------------------------------------------------
   1 S    6.600000
   1 S    4.620000
   1 S    3.230000
   1 S    2.260000
   1 S    1.580000
   1 S    1.100000
   1 S    0.770000
   2 S    1.000000
   2 P    5.300000
   2 P    3.870000
   2 P    2.820000
   2 P    2.060000
   2 P    1.500000
   3 D    5.800000
   3 D    4.070000
   3 D    2.850000
   3 D    2.000000
   4 F    4.500000
   4 F    3.350000
   4 F    2.500000
   5 G    5.000000
   5 G    3.000000


 BAS: List of all Elementary Cartesian Basis Functions
 =====================================================

 The numbering in the list below (to the right of the function characteristics) is referred
 to in print-outs of MO eigenvectors and Mulliken populations in the BAS representation
 (as contrasted to the SFO representation).

 Notes:
 1. The functions are characterized by a polynomial prefactor (powers of x,y,z and r) and
    an exponential decay factor alpha.
 2. Since the basis sets are specific for an atom TYPE, the individual functions occur on
    all atoms of that type.
 3. The word 'Core' in the left margin signals that it is a Core Function (CF) : not a
    degree of freedom in the valence set, but only used to ensure orthogonalization of
    the other valence basis functions on the frozen Core Orbitals.


 (power of) X  Y  Z  R     Alpha  on Atom
            ==========     =====     ==========

 H                                    1
                                  ---------------------------------------------------------------------------
            0  0  0  0     3.300      1
            0  0  0  0     2.000      2
            0  0  0  0     1.400      3
            0  0  0  0     1.000      4
            0  0  0  0     0.710      5
            1  0  0  0     2.000      6
            0  1  0  0     2.000      7
            0  0  1  0     2.000      8
            1  0  0  0     1.000      9
            0  1  0  0     1.000     10
            0  0  1  0     1.000     11
            2  0  0  0     2.500     12
            1  1  0  0     2.500     13
            1  0  1  0     2.500     14
            0  2  0  0     2.500     15
            0  1  1  0     2.500     16
            0  0  2  0     2.500     17
            2  0  0  0     1.500     18
            1  1  0  0     1.500     19
            1  0  1  0     1.500     20
            0  2  0  0     1.500     21
            0  1  1  0     1.500     22
            0  0  2  0     1.500     23

 Total number of charge fitting functions (nprimf)       107
 Total number of Cartesian basis functions (naos)         23
 Total number of Cartesian core functions  (ncos)          0



 BAS: List of all Elementary Cartesian Basis Functions
 =====================================================

 The numbering in the list below (to the right of the function characteristics) is referred
 to in print-outs of MO eigenvectors and Mulliken populations in the BAS representation
 (as contrasted to the SFO representation).

 Notes:
 1. The functions are characterized by a polynomial prefactor (powers of x,y,z and r) and
    an exponential decay factor alpha.
 2. Since the basis sets are specific for an atom TYPE, the individual functions occur on
    all atoms of that type.
 3. The word 'Core' in the left margin signals that it is a Core Function (CF) : not a
    degree of freedom in the valence set, but only used to ensure orthogonalization of
    the other valence basis functions on the frozen Core Orbitals.


 (power of) X  Y  Z  R     Alpha  on Atom
            ==========     =====     ==========

 H                                    1
                                  ---------------------------------------------------------------------------
            0  0  0  0     3.300      1
            0  0  0  0     2.000      2
            0  0  0  0     1.400      3
            0  0  0  0     1.000      4
            0  0  0  0     0.710      5
            1  0  0  0     2.000      6
            0  1  0  0     2.000      7
            0  0  1  0     2.000      8
            1  0  0  0     1.000      9
            0  1  0  0     1.000     10
            0  0  1  0     1.000     11
            2  0  0  0     2.500     12
            1  1  0  0     2.500     13
            1  0  1  0     2.500     14
            0  2  0  0     2.500     15
            0  1  1  0     2.500     16
            0  0  2  0     2.500     17
            2  0  0  0     1.500     18
            1  1  0  0     1.500     19
            1  0  1  0     1.500     20
            0  2  0  0     1.500     21
            0  1  1  0     1.500     22
            0  0  2  0     1.500     23
1
 ***************************************************************************************************



                                              ***********************
                                              *  T E C H N I C A L  *
                                              ***********************
  



 =============================================================
 P A R A L L E L I Z A T I O N  and  V E C T O R I Z A T I O N
 =============================================================
  
 Nr of parallel processes:                                1
 Maximum vector length in NumInt loops:                 128



 ===============
 I O  vs.  C P U  ***  (store numerical data on disk or recalculate)  ***
 ===============
  
 Basis functions:   recalculate when needed
 Fit functions:     recalculate when needed

 IO buffersize (Mb):                                     64.000000



 =====================
 S C F   U P D A T E S
 =====================
  
 Max. nr. of cycles:                               100
 Convergence criterion:                              0.0000000100
   secondary criterion:                              0.0000000100

 Mix parameter (when DIIS does not apply):           0.2000000000
 Special mix parameter for the first cycle:          1.0000000000


 DIIS (Direct Inversion in Iteration Space)
    Replace damping when SCF Error is below:         0.5000000000
    Apply anyway after SCF cycle:
                                                     5
    (Max.) nr. of expansion vectors:                10

    Upperbound on expansion coefficients:            5.0000000000
    (when exceeded, IterationSpace is re-built)
    2nd Upperbound on coefficients:                 25.0000000000
    (when exceeded, simple damping will be used)
 Automatic ElectronSmearing (in case of problematic SCF convergence) disabled



 =================
 P R E C I S I O N  ***  (General: NumInt, NeglectFunctionTails, ...)  ***
 =================
  

 NumInt:           Target precision:                10.0000000000
 -------           Initial precision:               10.0000000000
                   Min. precision (optimization):   10.0000000000

 Neglect Functions:          Basis functions:        0.1000000000E-11
 ------------------          Fit functions:          0.1000000000E-11



 ===========================
 L I N E A R   S C A L I N G
 ===========================
  

 Cut-off radii density fit:                        0.1000000000E-13
 Overlap cut-off criterion AO matrix elements:     0.1000000000E-11
 Cut-offs for Coulomb potential and fitted density:0.1000000000E-13
 Cut-off criterion for Coulomb multipole terms:    0.1000000000E-13
 Progressive Convergence parameter:                 0.000000000    
1
 ***************************************************************************************************



                                            ***************************
                                            *  C O M P U T A T I O N  *
                                            ***************************
  

 Number of elements of the density matrix on this node (used, total):       276       276



 ====================================================
 Numerical Integration : Voronoi Polyhedra (Te Velde)
 ====================================================
  
 General Accuracy Parameter :                         10.00

 Symmetry used in the points section:  ATOM  


 Summary of the Symmetry Unique Points:
 --------------------------------------
    Nr. of used Symmetry Operators                     1

    Points in the Atomic Spheres                      44
    Points in the Atomic Polyhedra                     0
    Points in the Outer Region                         0
    ----------------------------------------------------
    Total                                             44

    Sum of Weights                                 33854.777883

 Total nr. of points:         44
 Nr. of blocks:                1
 Block length:                44
 Nr. of dummy points:          0


 Test of Precision of the Numerical Integration Grid
 ===================================================

 Integral of the Total Core Density:                   0.00000000000000



 =====
 S C F
 =====
  

 CYCLE    1
 orbitals (Q,E):
 ---------------
 S :1...5            ( 1.00    -0.5000)  ( 0.00    -0.1102)  ( 0.00     0.2912)  ( 0.00     2.1458)
                     ( 0.00    15.1140)
 P :1...2            ( 0.00    -0.0467)  ( 0.00     1.6698)
 D :1...2            ( 0.00     0.4090)  ( 0.00     3.3827)

 CYCLE    2
 d-Pmat  mean:  0.40E-01
 imax=      4: -0.73E+00
 orbitals (Q,E):
 ---------------
 S :1...2            ( 1.00    -0.2213)  ( 0.00     0.0617)
 P :1...1            ( 0.00     0.1820)
 D :1...1            ( 0.00     0.6395)

 CYCLE    3
 d-Pmat  mean:  0.48E-02
 imax=      4:  0.66E-01
 orbitals (Q,E):
 ---------------
 S :1...2            ( 1.00    -0.2392)  ( 0.00     0.0523)
 P :1...1            ( 0.00     0.1713)
 D :1...1            ( 0.00     0.6290)

 CYCLE    4
 d-Pmat  mean:  0.47E-03
 imax=      4: -0.74E-02
 orbitals (Q,E):
 ---------------
 S :1...2            ( 1.00    -0.2386)  ( 0.00     0.0522)
 P :1...1            ( 0.00     0.1716)
 D :1...1            ( 0.00     0.6293)

 CYCLE    5
 d-Pmat  mean:  0.13E-04
 imax=      4:  0.20E-03
 orbitals (Q,E):
 ---------------
 S :1...2            ( 1.00    -0.2386)  ( 0.00     0.0522)
 P :1...1            ( 0.00     0.1716)
 D :1...1            ( 0.00     0.6293)

 CYCLE    6
 d-Pmat  mean:  0.14E-06
 imax=      4:  0.26E-05
 orbitals (Q,E):
 ---------------
 S :1...2            ( 1.00    -0.2386)  ( 0.00     0.0522)
 P :1...1            ( 0.00     0.1716)
 D :1...1            ( 0.00     0.6293)

 CYCLE    7
 d-Pmat  mean:  0.24E-08
 imax=      4:  0.39E-07
 orbitals (Q,E):
 ---------------
 S :1...2            ( 1.00    -0.2386)  ( 0.00     0.0522)
 P :1...1            ( 0.00     0.1716)
 D :1...1            ( 0.00     0.6293)

 SCF CONVERGED

 CYCLE    8
1
 ***************************************************************************************************



                                                *******************
                                                *  R E S U L T S  *
                                                *******************
  
 *** Setting up for NEW gradients in focky
 *** Using FIT density in focky

 Scaled ZORA Orbital Energies, per Irrep and Spin:
 =================================================
                        Occup              E (au)              E (eV)       Diff (eV) with prev. cycle
                        -----      --------------------        ------       --------------------------
 S
               1        1.000     -0.23860414448782E+00        -6.493              -2.15E-10
               2        0.000      0.52240780773353E-01         1.422
               3        0.000      0.50128711414801E+00        13.641
               4        0.000      0.23892611828176E+01        65.015
               5        0.000      0.15295018626306E+02       416.199
 P
               1        0.000      0.17156247999749E+00         4.668
               2        0.000      0.19364620405874E+01        52.694
 D
               1        0.000      0.62928666110103E+00        17.124
               2        0.000      0.36544214463356E+01        99.442


 Partially Occupied:
               1 S                -0.23860414448782E+00
  
 LUMO :        2 S                 0.52240780773353E-01
  


 Orbital Energies, all Irreps
 ========================================

 Irrep        no.  (spin)   Occup              E (au)                E (eV)
 ---------------------------------------------------------------------------
 S             1             1.00       -0.23860414448782E+00        -6.4927
 S             2             0.00        0.52240780773353E-01         1.4215
 P             1             0.00        0.17156247999749E+00         4.6685
 S             3             0.00        0.50128711414801E+00        13.6407
 D             1             0.00        0.62928666110103E+00        17.1238
 P             2             0.00        0.19364620405874E+01        52.6938
 S             4             0.00        0.23892611828176E+01        65.0151
 D             2             0.00        0.36544214463356E+01        99.4419
 S             5             0.00        0.15295018626306E+02       416.1986


 All Electron Calculation, thus no Orbital Energies of the Core Orbitals are calculated



 =======================================
 M U L L I K E N   P O P U L A T I O N S
 =======================================
  
 The survey below gives for each atom:
 a) the total charge (Z minus electrons)
 b) the net spin polarization (nr of electrons spin-A minus spin-B)
 c) for each spin the atomic electron valence density (integrated) per L-value.

 Atom              Charge    Spin density          S         P         D         F
 ----              ------    ------------       ------    ------    ------    ------
 1 H               0.0000                       1.0000    0.0000    0.0000    0.0000

 Populations of individual BAS functions
 ----------------------------------------
 1 H           -0.0037  0.0405  0.0399  0.5670  0.3563  0.0000  0.0000  0.0000  0.0000  0.0000
                0.0000  0.0000  0.0000  0.0000  0.0000  0.0000  0.0000  0.0000  0.0000  0.0000
                0.0000  0.0000  0.0000

 Gross Charges per Atom (Z minus electrons)
 ==========================================
             0.0000
 Net Total:  0.00000000


 Atom-Atom Population Matrix (off-diagonal elements not doubled)
 ===============================================================

     1 :     1.0000



 =============
 Dipole Moment  ***  (Debye)  ***
 =============
  
 Vector   :         0.00000000      0.00000000      0.00000000
 Magnitude:         0.00000000

 This molecular dipole moment is calculated with analytic integration



 =========================================
 Quadrupole Moment (Buckingham convention)  ***  (a.u.)  ***
 =========================================
  
      quad-xx        quad-xy        quad-xz        quad-yy        quad-yz        quad-zz
      0.00000000     0.00000000     0.00000000     0.00000000     0.00000000     0.00000000

 This molecular quadrupole moment is calculated with analytic integration



 ===============================================================================
 Electrostatic potential at the Nuclei due to valence electrons and other nuclei
 ===============================================================================
  
         Atom                  Potential
         ----                  ---------
     1)   H                   0.94463948
 
 
 ========================
 No memory problems found
 ========================
 
 Maximum number of active allocate calls:         378
 
 *******************************************************************************

                             A D F   E X I T
 NORMAL TERMINATION



 =================
 Timing Statistics
 =================
  
 Total Used :                     CPU=        0.20      System=        0.06     Elapsed=        2.48

 Calls  Section                     ( Mean, Percentage )
 ---------------------------------------------------------------------------------------------------
     3  ><      ................      0.00    0.34             0.00    1.32             0.01    0.71
     1  INIT    ................      0.01    5.83             0.00    0.00             0.12    4.75
     1  GEOMET  ................      0.01    4.82             0.02   34.57             0.23    9.13
     1  INPUTA  ................      0.00    0.97             0.00    0.00             0.00    0.11
     1  MAINSY  ................      0.00    2.07             0.01    8.96             0.56   22.57
     1  SYMFIT  ................      0.00    0.00             0.00    0.56             0.00    0.01
     1  CORORT  ................      0.00    0.04             0.00    1.01             0.15    6.16
     1  SYMORB  ................      0.00    0.16             0.00    0.62             0.00    0.03
     1  FITINT  ................      0.01    3.76             0.00    4.59             0.19    7.60
     1  CLSMAT  ................      0.00    0.00             0.00    1.28             0.12    4.86
     1  ORTHON  ................      0.00    0.41             0.00    2.71             0.07    2.75
     1  GENPT   ................      0.01    4.23             0.00    1.35             0.08    3.29
     1  PTBAS   ................      0.00    1.38             0.00    0.06             0.02    0.68
     8  FOCKY   ................      0.01   47.73             0.00   12.99             0.04   12.03
     8  FOCKTR  ................      0.00    1.46             0.00    0.00             0.00    0.12
     8  FOCKNM  ................      0.00    0.18             0.00    0.00             0.00    0.01
     8  SDIIS   ................      0.00    2.73             0.00    0.00             0.04   14.18
     8  EMERGE  ................      0.00   12.38             0.00    5.37             0.01    4.34
     1  COREPS  ................      0.00    0.00             0.00    6.68             0.02    0.78
     1  POPAN   ................      0.00    0.00             0.00    5.10             0.09    3.58
     1  DEBYE   ................      0.00    0.00             0.00    1.36             0.01    0.29
     1  QMPOT   ................      0.00    0.00             0.00    4.63             0.00    0.11
     1  EXIT PROCEDURE .........      0.02   11.51             0.00    6.85             0.05    1.89


 Currently Open Files (EXIT00)
 ====================

 Unit    Access Format  Status   Type       Ident (file)
 -------------------------------------------------------
   3      SEQ    FORM   TRANSP  NORMAL      LOGFILE
                                          ( logfile )


 Buffered I/O statistics
 =======================
 Memory available:                     67108864
 Number of records fitting in memory:     16131
 Input :   1.3% of                         3604  *4k bytes
 Output:  10.6% of                         1855  *4k bytes
 Records from serial files evicted:           0
                    others evicted:           0
 Hash table lookups:      14887 with          0 conflicts (  0.00%)

 ***************************************************************************************************
 (LOGFILE)
 <Jan01-2013> <00:00:00>  DIRAC 2013.01  RunTime: Jan01-2013 00:00:00  Nodes: 1  Procs: 1
 <Jan01-2013> <00:00:00>  NORMAL TERMINATION
 <Jan01-2013> <00:00:00>  END
 <Jan01-2013> <00:00:01>  ADF 2013.01  RunTime: Jan01-2013 00:00:01  Nodes: 1  Procs: 1
 <Jan01-2013> <00:00:01>  Hydrogen (QZ, all electron, 5S 2P 2D)
 <Jan01-2013> <00:00:01>  RunType   : CREATE
 <Jan01-2013> <00:00:02>  Net Charge: 0 (Nuclei minus Electrons)
 <Jan01-2013> <00:00:02>  Symmetry  : ATOM
  Coordinates
    Atom         X           Y           Z   (Angstrom)
    1.H         0.000000    0.000000    0.000000
 <Jan01-2013> <00:00:02>  >>>> CORORT
 <Jan01-2013> <00:00:02>  >>>> FITINT
 <Jan01-2013> <00:00:02>  >>>> CLSMAT
 <Jan01-2013> <00:00:03>  >>>> ORTHON
 <Jan01-2013> <00:00:03>  >>>> GENPT
 <Jan01-2013> <00:00:03>  Acc.Num.Int.=  10.000
 <Jan01-2013> <00:00:03>  Block Length=  44
 <Jan01-2013> <00:00:03>  >>>> PTBAS
 <Jan01-2013> <00:00:03>  >>>> CYCLE
 <Jan01-2013> <00:00:03>    1
 <Jan01-2013> <00:00:03>    2  ErrMat   0.03803841  MaxEl  0.03078708
 <Jan01-2013> <00:00:03>    3  ErrMat   0.00916622  MaxEl -0.00901560
 <Jan01-2013> <00:00:03>    4  ErrMat   0.00035667  MaxEl  0.00031421
 <Jan01-2013> <00:00:03>    5  ErrMat   0.00000962  MaxEl -0.00000892
 <Jan01-2013> <00:00:03>    6  ErrMat   0.00000013  MaxEl  0.00000008
 <Jan01-2013> <00:00:03>    7  ErrMat   0.00000000  MaxEl  0.00000000
 <Jan01-2013> <00:00:03>  SCF converged
 <Jan01-2013> <00:00:03>    8  ErrMat   0.00000000  MaxEl  0.00000000
 <Jan01-2013> <00:00:03>   Solutions with partially occupied orbitals may not be
 <Jan01-2013> <00:00:03>   lowest in energy. You might consider lowering the
 <Jan01-2013> <00:00:03>   symmetry in the input and explicitly specifying integer
 <Jan01-2013> <00:00:03>   occupations. In that case always check that you obtain
 <Jan01-2013> <00:00:04>   an aufbau solution.
 <Jan01-2013> <00:00:04>  >>>> POPAN
 <Jan01-2013> <00:00:04>  >>>> DEBYE
 <Jan01-2013> <00:00:04>  NORMAL TERMINATION
 <Jan01-2013> <00:00:04>  END

 *******************************************************************************
 *                                                                             *
 *  -------------------------------------                                      *
 *   Amsterdam Density Functional  (ADF)         2013.01   April 2, 2013       *
 *  -------------------------------------                                      *
 *                                               Build 201304112106            *
 *                                                                             *
 *                                                                             *
 *                            =====================                            *
 *                            |                   |                            *
 *                            |     D I R A C     |                            *
 *                            |                   |                            *
 *                            =====================                            *
 *                                                                             *
 *                                                                             *
 *   Online information and documentation:  http://www.scm.com                 *
 *   E-mail:  support@scm.com   info@scm.com                                   *
 *                                                                             *
 *   Scientific publications using ADF results must be properly referenced     *
 *   See the User Manuals (or the web site) for recommended citations          *
 *   The terms and conditions of the End User License Agreement apply to       *
 *   the use of ADF, http://www.scm.com/Sales/LicAgreement.html                *
 *                                                                             *
 ****************************  x86_64_linux_intel  *****************************
 
 Licensed to: Prof. Cacier Hadad / University of Antioquia / Medellin / COLOMBIA
 SCM User ID: u15319
  
 DIRAC 2013.01  RunTime: Jan01-2013 00:00:04  Nodes: 1  Procs: 1

 Temporary files are created in /tmp/kid_0.pETRyW

1
 OXYGEN ATOM all electron RELATIVISTIC, Point Nuc, A and c fr
 N J RN H ZN XION ANUC CLIGHT
 5000    4100.00000000197.36710137  8.00000000  0.00000000   15.994914  0.1370360E+03
  PH   PHI     EPS        DEL        DELRVR
  0.30  0.30     2500.00  0.00001000  0.00001000
 IDIRC  NC1  NDEBU NPRIN  IPUN IRCOR IWCOR
   1   300     0     0     0     0     0
   XALPHA      XLATTER      RNUC
  0.70000000  0.00000000  0.00000000 Point Charge
   XN   XL   XJ      XE          XZ      XDELL
  1.0  0.0  0.5      -5.000       2.000     0.00000
  2.0  0.0  0.5      -1.000       2.000     0.00000
  2.0  1.0  0.5      -1.000       2.000     0.00000
  2.0  1.0  1.5      -1.000       2.000     0.00000
 ICORP=  0  NPCL=  0  DEMP=0.00  PEPS=0.000000
 R(1)=  0.1000000E-08 D=  0.1005080E+01 RNUC=  0.0000000E+00
 converged at cycle   28  DENSITY AVERAGING    0.2400
  MAXIMUM ERROR IN R.V(R) IS   0.81125670E-05
 Q,EY,EV,EZ,ESUM,ETOT,RHO  0.800000E+01 -0.101247E+02 -0.114961E+03 -0.177573E+03 -0.405053E+02 -0.743427E+02  0.414766E-14


 DIRAC CALCULATION
1                    OXYGEN ATOM all electron RELATIVISTIC, Point Nuc, A and c from libtc


 EXCHANGE COEFFICIENT=  0.7000000           TAIL CORRECTION=  0.           NUCLEAR RADIUS=  0.000E+00
0                       ORBITAL    N    L    J     ELECTRONS     EIGENVALUE                DELTA OF EIGENV.

                          1S1/2  1.0  0.0  0.5     2.000       -0.1880014E+02                 0.7264359E-06
                          2S1/2  2.0  0.0  0.5     2.000       -0.8412236E+00                 0.5932752E-05
                          2P1/2  2.0  1.0  0.5     2.000       -0.3063203E+00                 0.5998471E-05
                          2P3/2  2.0  1.0  1.5     2.000       -0.3049609E+00                 0.5986971E-05


                                        NUCLEAR CHARGE=    8.000000
                            INTEGRAL OF CHARGE DENSITY=    8.000000
                           SUM OF THE ORBITAL ENERGIES=    -40.5053
                                          TOTAL ENERGY=    -74.3427
                                        KINETIC ENERGY=     74.4552
                             NUCLEAR ATTRACTION ENERGY=   -177.5730
                             ELECTRON REPULSION ENERGY=     36.3686
                                       EXCHANGE ENERGY=     -7.5935

 *******************************************************************************

                             D I R A C   E X I T
 NORMAL TERMINATION



 =================
 Timing Statistics
 =================
  
 Total Used :                     CPU=        0.15      System=        0.02     Elapsed=        0.40

 Calls  Section                     ( Mean, Percentage )
 ---------------------------------------------------------------------------------------------------
     2  ><      ................      0.00    0.00             0.00    0.04             0.00    0.00
     1  EXIT PROCEDURE .........      0.15  100.00             0.02   99.96             0.40  100.00


 Currently Open Files (EXIT00)
 ====================

 Unit    Access Format  Status   Type       Ident (file)
 -------------------------------------------------------
   3      SEQ    FORM   TRANSP  NORMAL      LOGFILE
                                          ( logfile )


 Buffered I/O statistics
 =======================
 Memory available:                     67108864
 Number of records fitting in memory:     16131
 Input : 100.0% of                            0  *4k bytes
 Output: 100.0% of                            0  *4k bytes
 Records from serial files evicted:           0
                    others evicted:           0
 Hash table lookups:          0 with          0 conflicts (100.00%)
(INPUT FILE)
Create O   file=/home/andyzapa/adf2013.01/atomicdata/ZORA/QZ4P/O
 XC
 GGA PBE
End
relativistic ZORA
Corepotentials t12.rel
End Input

 *******************************************************************************
 *                                                                             *
 *  -------------------------------------                                      *
 *   Amsterdam Density Functional  (ADF)         2013.01   April 2, 2013       *
 *  -------------------------------------                                      *
 *                                               Build 201304112215            *
 *                                                                             *
 *                                                                             *
 *                              =================                              *
 *                              |               |                              *
 *                              |     A D F     |                              *
 *                              |               |                              *
 *                              =================                              *
 *                                                                             *
 *                                                                             *
 *   Online information and documentation:  http://www.scm.com                 *
 *   E-mail:  support@scm.com   info@scm.com                                   *
 *                                                                             *
 *   Scientific publications using ADF results must be properly referenced     *
 *   See the User Manuals (or the web site) for recommended citations          *
 *   The terms and conditions of the End User License Agreement apply to       *
 *   the use of ADF, http://www.scm.com/Sales/LicAgreement.html                *
 *                                                                             *
 ********************  x86_64_linux_intel / platform_mpi  **********************
 
 Licensed to: Prof. Cacier Hadad / University of Antioquia / Medellin / COLOMBIA
 SCM User ID: u15319
  
 ADF 2013.01  RunTime: Jan01-2013 00:00:05  Nodes: 1  Procs: 1

 Temporary files are created in /tmp/kid_0.iUhjXz

 Oxygen (QZ, all electron, 8S 4P 2D 2F)



 ===========================
 A T T A C H E D   F I L E S
 ===========================
  
 CREATE - Data File:    /home/andyzapa/adf2013.01/atomicdata/ZORA/QZ4P/O
                        Oxygen (QZ, all electron, 8S 4P 2D 2F)
 Core Potentials:
         file : t12.rel



 ===============================
 M O D E L   P A R A M E T E R S
 ===============================
  
 DENSITY FUNCTIONAL POTENTIAL (scf)
    LDA:                               PW92                                    == Not Default ==
    Gradient Corrections:              PBEc PBEx                               == Not Default ==

 SPIN  (restricted / unrestr.)
    Molecule:                          Restricted                               

 OTHER ASPECTS
    Relativistic Corrections:          scalar (ZORA,SAPA)                      == Not Default ==

    Nuclear Charge Density Model:      Point Charge Nuclei                                                                                                                                                                                     
    Core Treatment:                    Frozen Orbital(s)                        

    Hyperfine or Zeeman Interaction:   ---                                      



 =====================================
 S Y M M E T R Y ,   E L E C T R O N S
 =====================================
  
 Symmetry: ATOM

 Irreducible Representations, including subspecies
 -------------------------------------------------
 S
 P:x  P:y  P:z
 D:z2  D:x2-y2  D:xy  D:xz  D:yz
 F:z3  F:z  F:xyz  F:z2x  F:z2y  F:x  F:y


 Configuration of Valence Electrons
 ==================================

          Occupation Numbers
          -------------------------------------------------
 S        2*2
 P        4
 D        0
 F        0
          -------------------------------------------------

 Total:   8

 Net Charge: 0 (Nuclei minus Electrons)

 Preset values for MO occupations will be applied through SCF cycle no. 1000000
 Thereafter, the program will assign electrons to MOs that are spatially
 similar to the occupied MOs in a "reference" cycle ("KeepOrbitals").
 The reference cycle is always the PREVIOUS cycle: it will evolve with
 the SCF procedure.



 ================================
 (Slater-type)  F U N C T I O N S  ***  (Basis and Fit)  ***
 ================================
  

 Atom Type    1  (O)
 ==============

 Valence Basis Sets:  16
 -----------------------
   1 S   14.800000
   1 S    8.750000
   1 S    6.650000
   2 S    7.100000
   2 S    3.200000
   2 S    2.050000
   2 S    1.500000
   2 S    0.750000
   2 P    5.700000
   2 P    3.050000
   2 P    1.650000
   2 P    1.000000
   3 D    2.500000
   3 D    1.500000
   4 F    4.000000
   4 F    2.000000

 Charge Fitting Sets (for the computation of the Coulomb Potential):  37
 -----------------------------------------------------------------------
   1 S   29.600000
   1 S   22.760000
   1 S   17.500000
   1 S   11.580000
   2 S   14.160000
   2 S   10.290000
   2 S    7.480000
   2 S    5.430000
   3 S    5.780000
   3 S    4.410000
   3 S    3.370000
   3 S    2.570000
   3 S    1.960000
   3 S    1.500000
   2 P   14.450000
   2 P    9.770000
   2 P    6.610000
   3 P    6.560000
   3 P    4.710000
   3 P    3.390000
   3 P    2.430000
   3 P    1.750000
   3 D   11.400000
   3 D    7.640000
   3 D    5.120000
   4 D    4.550000
   4 D    3.200000
   4 D    2.250000
   4 F   12.750000
   4 F    8.120000
   4 F    5.170000
   5 F    4.130000
   5 F    2.750000
   5 G    9.700000
   5 G    6.560000
   5 G    4.440000
   5 G    3.000000


 BAS: List of all Elementary Cartesian Basis Functions
 =====================================================

 The numbering in the list below (to the right of the function characteristics) is referred
 to in print-outs of MO eigenvectors and Mulliken populations in the BAS representation
 (as contrasted to the SFO representation).

 Notes:
 1. The functions are characterized by a polynomial prefactor (powers of x,y,z and r) and
    an exponential decay factor alpha.
 2. Since the basis sets are specific for an atom TYPE, the individual functions occur on
    all atoms of that type.
 3. The word 'Core' in the left margin signals that it is a Core Function (CF) : not a
    degree of freedom in the valence set, but only used to ensure orthogonalization of
    the other valence basis functions on the frozen Core Orbitals.


 (power of) X  Y  Z  R     Alpha  on Atom
            ==========     =====     ==========

 O                                    1
                                  ---------------------------------------------------------------------------
            0  0  0  0    14.800      1
            0  0  0  0     8.750      2
            0  0  0  0     6.650      3
            0  0  0  1     7.100      4
            0  0  0  1     3.200      5
            0  0  0  1     2.050      6
            0  0  0  1     1.500      7
            0  0  0  1     0.750      8
            1  0  0  0     5.700      9
            0  1  0  0     5.700     10
            0  0  1  0     5.700     11
            1  0  0  0     3.050     12
            0  1  0  0     3.050     13
            0  0  1  0     3.050     14
            1  0  0  0     1.650     15
            0  1  0  0     1.650     16
            0  0  1  0     1.650     17
            1  0  0  0     1.000     18
            0  1  0  0     1.000     19
            0  0  1  0     1.000     20
            2  0  0  0     2.500     21
            1  1  0  0     2.500     22
            1  0  1  0     2.500     23
            0  2  0  0     2.500     24
            0  1  1  0     2.500     25
            0  0  2  0     2.500     26
            2  0  0  0     1.500     27
            1  1  0  0     1.500     28
            1  0  1  0     1.500     29
            0  2  0  0     1.500     30
            0  1  1  0     1.500     31
            0  0  2  0     1.500     32
            3  0  0  0     4.000     33
            2  1  0  0     4.000     34
            2  0  1  0     4.000     35
            1  2  0  0     4.000     36
            1  1  1  0     4.000     37
            1  0  2  0     4.000     38
            0  3  0  0     4.000     39
            0  2  1  0     4.000     40
            0  1  2  0     4.000     41
            0  0  3  0     4.000     42
            3  0  0  0     2.000     43
            2  1  0  0     2.000     44
            2  0  1  0     2.000     45
            1  2  0  0     2.000     46
            1  1  1  0     2.000     47
            1  0  2  0     2.000     48
            0  3  0  0     2.000     49
            0  2  1  0     2.000     50
            0  1  2  0     2.000     51
            0  0  3  0     2.000     52

 Total number of charge fitting functions (nprimf)       184
 Total number of Cartesian basis functions (naos)         52
 Total number of Cartesian core functions  (ncos)          0



 BAS: List of all Elementary Cartesian Basis Functions
 =====================================================

 The numbering in the list below (to the right of the function characteristics) is referred
 to in print-outs of MO eigenvectors and Mulliken populations in the BAS representation
 (as contrasted to the SFO representation).

 Notes:
 1. The functions are characterized by a polynomial prefactor (powers of x,y,z and r) and
    an exponential decay factor alpha.
 2. Since the basis sets are specific for an atom TYPE, the individual functions occur on
    all atoms of that type.
 3. The word 'Core' in the left margin signals that it is a Core Function (CF) : not a
    degree of freedom in the valence set, but only used to ensure orthogonalization of
    the other valence basis functions on the frozen Core Orbitals.


 (power of) X  Y  Z  R     Alpha  on Atom
            ==========     =====     ==========

 O                                    1
                                  ---------------------------------------------------------------------------
            0  0  0  0    14.800      1
            0  0  0  0     8.750      2
            0  0  0  0     6.650      3
            0  0  0  1     7.100      4
            0  0  0  1     3.200      5
            0  0  0  1     2.050      6
            0  0  0  1     1.500      7
            0  0  0  1     0.750      8
            1  0  0  0     5.700      9
            0  1  0  0     5.700     10
            0  0  1  0     5.700     11
            1  0  0  0     3.050     12
            0  1  0  0     3.050     13
            0  0  1  0     3.050     14
            1  0  0  0     1.650     15
            0  1  0  0     1.650     16
            0  0  1  0     1.650     17
            1  0  0  0     1.000     18
            0  1  0  0     1.000     19
            0  0  1  0     1.000     20
            2  0  0  0     2.500     21
            1  1  0  0     2.500     22
            1  0  1  0     2.500     23
            0  2  0  0     2.500     24
            0  1  1  0     2.500     25
            0  0  2  0     2.500     26
            2  0  0  0     1.500     27
            1  1  0  0     1.500     28
            1  0  1  0     1.500     29
            0  2  0  0     1.500     30
            0  1  1  0     1.500     31
            0  0  2  0     1.500     32
            3  0  0  0     4.000     33
            2  1  0  0     4.000     34
            2  0  1  0     4.000     35
            1  2  0  0     4.000     36
            1  1  1  0     4.000     37
            1  0  2  0     4.000     38
            0  3  0  0     4.000     39
            0  2  1  0     4.000     40
            0  1  2  0     4.000     41
            0  0  3  0     4.000     42
            3  0  0  0     2.000     43
            2  1  0  0     2.000     44
            2  0  1  0     2.000     45
            1  2  0  0     2.000     46
            1  1  1  0     2.000     47
            1  0  2  0     2.000     48
            0  3  0  0     2.000     49
            0  2  1  0     2.000     50
            0  1  2  0     2.000     51
            0  0  3  0     2.000     52
1
 ***************************************************************************************************



                                              ***********************
                                              *  T E C H N I C A L  *
                                              ***********************
  



 =============================================================
 P A R A L L E L I Z A T I O N  and  V E C T O R I Z A T I O N
 =============================================================
  
 Nr of parallel processes:                                1
 Maximum vector length in NumInt loops:                 128



 ===============
 I O  vs.  C P U  ***  (store numerical data on disk or recalculate)  ***
 ===============
  
 Basis functions:   recalculate when needed
 Fit functions:     recalculate when needed

 IO buffersize (Mb):                                     64.000000



 =====================
 S C F   U P D A T E S
 =====================
  
 Max. nr. of cycles:                               100
 Convergence criterion:                              0.0000000100
   secondary criterion:                              0.0000000100

 Mix parameter (when DIIS does not apply):           0.2000000000
 Special mix parameter for the first cycle:          1.0000000000


 DIIS (Direct Inversion in Iteration Space)
    Replace damping when SCF Error is below:         0.5000000000
    Apply anyway after SCF cycle:
                                                     5
    (Max.) nr. of expansion vectors:                10

    Upperbound on expansion coefficients:            5.0000000000
    (when exceeded, IterationSpace is re-built)
    2nd Upperbound on coefficients:                 25.0000000000
    (when exceeded, simple damping will be used)
 Automatic ElectronSmearing (in case of problematic SCF convergence) disabled



 =================
 P R E C I S I O N  ***  (General: NumInt, NeglectFunctionTails, ...)  ***
 =================
  

 NumInt:           Target precision:                10.0000000000
 -------           Initial precision:               10.0000000000
                   Min. precision (optimization):   10.0000000000

 Neglect Functions:          Basis functions:        0.1000000000E-11
 ------------------          Fit functions:          0.1000000000E-11



 ===========================
 L I N E A R   S C A L I N G
 ===========================
  

 Cut-off radii density fit:                        0.1000000000E-13
 Overlap cut-off criterion AO matrix elements:     0.1000000000E-11
 Cut-offs for Coulomb potential and fitted density:0.1000000000E-13
 Cut-off criterion for Coulomb multipole terms:    0.1000000000E-13
 Progressive Convergence parameter:                 0.000000000    
1
 ***************************************************************************************************



                                            ***************************
                                            *  C O M P U T A T I O N  *
                                            ***************************
  

 Number of elements of the density matrix on this node (used, total):      1378      1378



 ====================================================
 Numerical Integration : Voronoi Polyhedra (Te Velde)
 ====================================================
  
 General Accuracy Parameter :                         10.00

 Symmetry used in the points section:  ATOM  


 Summary of the Symmetry Unique Points:
 --------------------------------------
    Nr. of used Symmetry Operators                     1

    Points in the Atomic Spheres                      61
    Points in the Atomic Polyhedra                     0
    Points in the Outer Region                         0
    ----------------------------------------------------
    Total                                             61

    Sum of Weights                                 58501.056183

 Total nr. of points:         61
 Nr. of blocks:                1
 Block length:                61
 Nr. of dummy points:          0


 Test of Precision of the Numerical Integration Grid
 ===================================================

 Integral of the Total Core Density:                   0.00000000000000



 =====
 S C F
 =====
  

 CYCLE    1
 orbitals (Q,E):
 ---------------
 S :1...8            ( 2.00   -32.0159)  ( 2.00    -8.0044)  ( 0.00    -3.5574)  ( 0.00    -1.9901)
                     ( 0.00    -1.2515)  ( 0.00     4.1058)  ( 0.00    41.2206)  ( 0.00   308.5800)
 P :1...4            ( 4.00    -7.9758)  ( 0.00    -3.5116)  ( 0.00    -1.8856)  ( 0.00     3.1956)
 D :1...2            ( 0.00    -3.5495)  ( 0.00    -1.9917)
 F :1...2            ( 0.00    -1.9999)  ( 0.00     1.0590)

 CYCLE    2
 d-Pmat  mean:  0.11E+01
 imax=      3: -0.25E+02
 orbitals (Q,E):
 ---------------
 S :1...3            ( 2.00   -14.5566)  ( 2.00    -0.0356)  ( 0.00     0.1667)
 P :1...2            ( 4.00     0.2048)  ( 0.00     0.7903)
 D :1...1            ( 0.00     0.7381)
 F :1...1            ( 0.00     1.6042)

 CYCLE    3
 d-Pmat  mean:  0.30E+00
 imax=     20: -0.24E+01
 orbitals (Q,E):
 ---------------
 S :1...3            ( 2.00   -16.2388)  ( 2.00    -0.4301)  ( 0.00     0.0620)
 P :1...2            ( 4.00     0.0108)  ( 0.00     0.4058)
 D :1...1            ( 0.00     0.5775)
 F :1...1            ( 0.00     1.4155)

 CYCLE    4
 d-Pmat  mean:  0.10E+00
 imax=     20: -0.11E+01
 orbitals (Q,E):
 ---------------
 S :1...3            ( 2.00   -17.2725)  ( 2.00    -0.6986)  ( 0.00     0.0275)
 P :1...2            ( 4.00    -0.1717)  ( 0.00     0.2612)
 D :1...1            ( 0.00     0.5085)
 F :1...1            ( 0.00     1.3362)

 CYCLE    5
 d-Pmat  mean:  0.56E-01
 imax=      3:  0.70E+00
 orbitals (Q,E):
 ---------------
 S :1...3            ( 2.00   -18.8741)  ( 2.00    -0.8425)  ( 0.00     0.0251)
 P :1...2            ( 4.00    -0.2957)  ( 0.00     0.2201)
 D :1...1            ( 0.00     0.5505)
 F :1...1            ( 0.00     1.3859)

 CYCLE    6
 d-Pmat  mean:  0.57E-02
 imax=      2:  0.75E-01
 orbitals (Q,E):
 ---------------
 S :1...3            ( 2.00   -18.9263)  ( 2.00    -0.8875)  ( 0.00     0.0144)
 P :1...2            ( 4.00    -0.3386)  ( 0.00     0.1983)
 D :1...1            ( 0.00     0.5241)
 F :1...1            ( 0.00     1.3583)

 CYCLE    7
 d-Pmat  mean:  0.80E-03
 imax=      6: -0.45E-02
 orbitals (Q,E):
 ---------------
 S :1...3            ( 2.00   -18.9106)  ( 2.00    -0.8796)  ( 0.00     0.0160)
 P :1...2            ( 4.00    -0.3310)  ( 0.00     0.2007)
 D :1...1            ( 0.00     0.5265)
 F :1...1            ( 0.00     1.3609)

 CYCLE    8
 d-Pmat  mean:  0.91E-04
 imax=      6:  0.77E-03
 orbitals (Q,E):
 ---------------
 S :1...3            ( 2.00   -18.9122)  ( 2.00    -0.8804)  ( 0.00     0.0159)
 P :1...2            ( 4.00    -0.3317)  ( 0.00     0.2005)
 D :1...1            ( 0.00     0.5262)
 F :1...1            ( 0.00     1.3606)

 CYCLE    9
 d-Pmat  mean:  0.72E-06
 imax=      2: -0.12E-04
 orbitals (Q,E):
 ---------------
 S :1...3            ( 2.00   -18.9122)  ( 2.00    -0.8804)  ( 0.00     0.0159)
 P :1...2            ( 4.00    -0.3317)  ( 0.00     0.2005)
 D :1...1            ( 0.00     0.5262)
 F :1...1            ( 0.00     1.3606)

 CYCLE   10
 d-Pmat  mean:  0.12E-07
 imax=      6: -0.16E-06
 orbitals (Q,E):
 ---------------
 S :1...3            ( 2.00   -18.9122)  ( 2.00    -0.8804)  ( 0.00     0.0159)
 P :1...2            ( 4.00    -0.3317)  ( 0.00     0.2005)
 D :1...1            ( 0.00     0.5262)
 F :1...1            ( 0.00     1.3606)

 CYCLE   11
 d-Pmat  mean:  0.73E-10
 imax=      3: -0.54E-09
 orbitals (Q,E):
 ---------------
 S :1...3            ( 2.00   -18.9122)  ( 2.00    -0.8804)  ( 0.00     0.0159)
 P :1...2            ( 4.00    -0.3317)  ( 0.00     0.2005)
 D :1...1            ( 0.00     0.5262)
 F :1...1            ( 0.00     1.3606)

 SCF CONVERGED

 CYCLE   12
1
 ***************************************************************************************************



                                                *******************
                                                *  R E S U L T S  *
                                                *******************
  
 *** Setting up for NEW gradients in focky
 *** Using FIT density in focky

 Scaled ZORA Orbital Energies, per Irrep and Spin:
 =================================================
                        Occup              E (au)              E (eV)       Diff (eV) with prev. cycle
                        -----      --------------------        ------       --------------------------
 S
               1        2.000     -0.18912163588835E+02      -514.626               1.11E-08
               2        2.000     -0.88042536030047E+00       -23.958               1.12E-08
               3        0.000      0.15917242512281E-01         0.433
               4        0.000      0.47157190005756E+00        12.832
               5        0.000      0.25092163545059E+01        68.279
               6        0.000      0.11901959076774E+02       323.869
               7        0.000      0.52347890774129E+02      1424.459
               8        0.000      0.32159312651538E+03      8750.994
 P
               1        4.000     -0.33172720137124E+00        -9.027               1.10E-08
               2        0.000      0.20052917651640E+00         5.457
               3        0.000      0.16594440943803E+01        45.156
               4        0.000      0.12142335979629E+02       330.410
 D
               1        0.000      0.52623159771480E+00        14.319
               2        0.000      0.24055384909881E+01        65.458
 F
               1        0.000      0.13606224428047E+01        37.024
               2        0.000      0.70188296926363E+01       190.992


 Partially Occupied:
               1 P                -0.33172720137124E+00
  
 HOMO :        2 S                -0.88042536030047E+00
 LUMO :        3 S                 0.15917242512281E-01
  


 Orbital Energies, all Irreps
 ========================================

 Irrep        no.  (spin)   Occup              E (au)                E (eV)
 ---------------------------------------------------------------------------
 S             1             2.00       -0.18912163588835E+02      -514.6262
 S             2             2.00       -0.88042536030047E+00       -23.9576
 P             1             4.00       -0.33172720137124E+00        -9.0268
 S             3             0.00        0.15917242512281E-01         0.4331
 P             2             0.00        0.20052917651640E+00         5.4567
 S             4             0.00        0.47157190005756E+00        12.8321
 D             1             0.00        0.52623159771480E+00        14.3195
 F             1             0.00        0.13606224428047E+01        37.0244
 P             3             0.00        0.16594440943803E+01        45.1558
 D             2             0.00        0.24055384909881E+01        65.4580
 S             5             0.00        0.25092163545059E+01        68.2793
 F             2             0.00        0.70188296926363E+01       190.9921
 S             6             0.00        0.11901959076774E+02       323.8688
 P             4             0.00        0.12142335979629E+02       330.4098
 S             7             0.00        0.52347890774129E+02      1424.4586
 S             8             0.00        0.32159312651538E+03      8750.9942


 All Electron Calculation, thus no Orbital Energies of the Core Orbitals are calculated



 =======================================
 M U L L I K E N   P O P U L A T I O N S
 =======================================
  
 The survey below gives for each atom:
 a) the total charge (Z minus electrons)
 b) the net spin polarization (nr of electrons spin-A minus spin-B)
 c) for each spin the atomic electron valence density (integrated) per L-value.

 Atom              Charge    Spin density          S         P         D         F
 ----              ------    ------------       ------    ------    ------    ------
 1 O               0.0000                       4.0000    4.0000    0.0000    0.0000

 Populations of individual BAS functions
 ----------------------------------------
 1 O            0.0407  0.7707  1.2791 -0.1485  0.7639  1.0393  0.2537  0.0009  0.0450  0.0450
                0.0450  0.4807  0.4807  0.4807  0.6422  0.6422  0.6422  0.1654  0.1654  0.1654
                0.0000  0.0000  0.0000  0.0000  0.0000  0.0000  0.0000  0.0000  0.0000  0.0000
                0.0000  0.0000  0.0000  0.0000  0.0000  0.0000  0.0000  0.0000  0.0000  0.0000
                0.0000  0.0000  0.0000  0.0000  0.0000  0.0000  0.0000  0.0000  0.0000  0.0000
                0.0000  0.0000

 Gross Charges per Atom (Z minus electrons)
 ==========================================
             0.0000
 Net Total:  0.00000000


 Atom-Atom Population Matrix (off-diagonal elements not doubled)
 ===============================================================

     1 :     8.0000



 =============
 Dipole Moment  ***  (Debye)  ***
 =============
  
 Vector   :         0.00000000      0.00000000      0.00000000
 Magnitude:         0.00000000

 This molecular dipole moment is calculated with analytic integration



 =========================================
 Quadrupole Moment (Buckingham convention)  ***  (a.u.)  ***
 =========================================
  
      quad-xx        quad-xy        quad-xz        quad-yy        quad-yz        quad-zz
      0.00000000     0.00000000     0.00000000     0.00000000     0.00000000     0.00000000

 This molecular quadrupole moment is calculated with analytic integration



 ===============================================================================
 Electrostatic potential at the Nuclei due to valence electrons and other nuclei
 ===============================================================================
  
         Atom                  Potential
         ----                  ---------
     1)   O                  22.26490088
 
 
 ========================
 No memory problems found
 ========================
 
 Maximum number of active allocate calls:         476
 
 *******************************************************************************

                             A D F   E X I T
 NORMAL TERMINATION



 =================
 Timing Statistics
 =================
  
 Total Used :                     CPU=        0.33      System=        0.08     Elapsed=        1.49

 Calls  Section                     ( Mean, Percentage )
 ---------------------------------------------------------------------------------------------------
     3  ><      ................      0.00    0.33             0.00    1.07             0.01    1.36
     1  INIT    ................      0.02    4.74             0.00    2.28             0.23   15.24
     1  GEOMET  ................      0.01    2.36             0.02   31.43             0.18   11.88
     1  INPUTA  ................      0.00    0.58             0.00    1.68             0.00    0.27
     1  MAINSY  ................      0.01    1.57             0.01    8.55             0.08    5.50
     1  SYMFIT  ................      0.00    0.06             0.00    0.32             0.00    0.03
     1  CORORT  ................      0.00    0.00             0.00    0.82             0.02    1.09
     1  SYMORB  ................      0.00    0.45             0.00    0.21             0.00    0.11
     1  FITINT  ................      0.01    2.65             0.00    2.00             0.02    1.17
     1  CLSMAT  ................      0.00    0.00             0.00    1.05             0.03    2.32
     1  ORTHON  ................      0.00    0.25             0.00    3.01             0.01    0.76
     1  GENPT   ................      0.01    3.66             0.00    0.57             0.06    3.86
     1  PTBAS   ................      0.00    0.59             0.00    2.91             0.08    5.07
    12  FOCKY   ................      0.01   51.11             0.00   18.79             0.02   18.65
    12  FOCKTR  ................      0.00    1.33             0.00    1.92             0.00    0.39
    12  FOCKNM  ................      0.00    0.13             0.00    0.22             0.00    0.04
    12  SDIIS   ................      0.00    2.08             0.00    3.03             0.02   14.15
    12  EMERGE  ................      0.01   18.53             0.00   12.37             0.02   12.64
     1  COREPS  ................      0.00    1.43             0.00    0.21             0.01    0.58
     1  POPAN   ................      0.00    0.93             0.00    0.05             0.02    1.21
     1  DEBYE   ................      0.00    0.28             0.00    0.00             0.01    0.60
     1  QMPOT   ................      0.00    0.32             0.00    5.69             0.01    0.36
     1  EXIT PROCEDURE .........      0.02    6.62             0.00    1.82             0.04    2.73


 Currently Open Files (EXIT00)
 ====================

 Unit    Access Format  Status   Type       Ident (file)
 -------------------------------------------------------
   3      SEQ    FORM   TRANSP  NORMAL      LOGFILE
                                          ( logfile )


 Buffered I/O statistics
 =======================
 Memory available:                     67108864
 Number of records fitting in memory:     16131
 Input :   0.9% of                         6430  *4k bytes
 Output:   8.3% of                         2767  *4k bytes
 Records from serial files evicted:           0
                    others evicted:           0
 Hash table lookups:      25047 with          0 conflicts (  0.00%)

 ***************************************************************************************************
 (LOGFILE)
 <Jan01-2013> <00:00:00>  DIRAC 2013.01  RunTime: Jan01-2013 00:00:00  Nodes: 1  Procs: 1
 <Jan01-2013> <00:00:00>  NORMAL TERMINATION
 <Jan01-2013> <00:00:00>  END
 <Jan01-2013> <00:00:01>  ADF 2013.01  RunTime: Jan01-2013 00:00:01  Nodes: 1  Procs: 1
 <Jan01-2013> <00:00:01>  Hydrogen (QZ, all electron, 5S 2P 2D)
 <Jan01-2013> <00:00:01>  RunType   : CREATE
 <Jan01-2013> <00:00:02>  Net Charge: 0 (Nuclei minus Electrons)
 <Jan01-2013> <00:00:02>  Symmetry  : ATOM
  Coordinates
    Atom         X           Y           Z   (Angstrom)
    1.H         0.000000    0.000000    0.000000
 <Jan01-2013> <00:00:02>  >>>> CORORT
 <Jan01-2013> <00:00:02>  >>>> FITINT
 <Jan01-2013> <00:00:02>  >>>> CLSMAT
 <Jan01-2013> <00:00:03>  >>>> ORTHON
 <Jan01-2013> <00:00:03>  >>>> GENPT
 <Jan01-2013> <00:00:03>  Acc.Num.Int.=  10.000
 <Jan01-2013> <00:00:03>  Block Length=  44
 <Jan01-2013> <00:00:03>  >>>> PTBAS
 <Jan01-2013> <00:00:03>  >>>> CYCLE
 <Jan01-2013> <00:00:03>    1
 <Jan01-2013> <00:00:03>    2  ErrMat   0.03803841  MaxEl  0.03078708
 <Jan01-2013> <00:00:03>    3  ErrMat   0.00916622  MaxEl -0.00901560
 <Jan01-2013> <00:00:03>    4  ErrMat   0.00035667  MaxEl  0.00031421
 <Jan01-2013> <00:00:03>    5  ErrMat   0.00000962  MaxEl -0.00000892
 <Jan01-2013> <00:00:03>    6  ErrMat   0.00000013  MaxEl  0.00000008
 <Jan01-2013> <00:00:03>    7  ErrMat   0.00000000  MaxEl  0.00000000
 <Jan01-2013> <00:00:03>  SCF converged
 <Jan01-2013> <00:00:03>    8  ErrMat   0.00000000  MaxEl  0.00000000
 <Jan01-2013> <00:00:03>   Solutions with partially occupied orbitals may not be
 <Jan01-2013> <00:00:03>   lowest in energy. You might consider lowering the
 <Jan01-2013> <00:00:03>   symmetry in the input and explicitly specifying integer
 <Jan01-2013> <00:00:03>   occupations. In that case always check that you obtain
 <Jan01-2013> <00:00:04>   an aufbau solution.
 <Jan01-2013> <00:00:04>  >>>> POPAN
 <Jan01-2013> <00:00:04>  >>>> DEBYE
 <Jan01-2013> <00:00:04>  NORMAL TERMINATION
 <Jan01-2013> <00:00:04>  END
 <Jan01-2013> <00:00:04>  DIRAC 2013.01  RunTime: Jan01-2013 00:00:04  Nodes: 1  Procs: 1
 <Jan01-2013> <00:00:04>  NORMAL TERMINATION
 <Jan01-2013> <00:00:04>  END
 <Jan01-2013> <00:00:05>  ADF 2013.01  RunTime: Jan01-2013 00:00:05  Nodes: 1  Procs: 1
 <Jan01-2013> <00:00:05>  Oxygen (QZ, all electron, 8S 4P 2D 2F)
 <Jan01-2013> <00:00:05>  RunType   : CREATE
 <Jan01-2013> <00:00:05>  Net Charge: 0 (Nuclei minus Electrons)
 <Jan01-2013> <00:00:05>  Symmetry  : ATOM
  Coordinates
    Atom         X           Y           Z   (Angstrom)
    1.O         0.000000    0.000000    0.000000
 <Jan01-2013> <00:00:05>  >>>> CORORT
 <Jan01-2013> <00:00:05>  >>>> FITINT
 <Jan01-2013> <00:00:05>  >>>> CLSMAT
 <Jan01-2013> <00:00:05>  >>>> ORTHON
 <Jan01-2013> <00:00:05>  >>>> GENPT
 <Jan01-2013> <00:00:05>  Acc.Num.Int.=  10.000
 <Jan01-2013> <00:00:05>  Block Length=  61
 <Jan01-2013> <00:00:05>  >>>> PTBAS
 <Jan01-2013> <00:00:05>  >>>> CYCLE
 <Jan01-2013> <00:00:05>    1
 <Jan01-2013> <00:00:05>    2  ErrMat   9.74921119  MaxEl  4.13901188
 <Jan01-2013> <00:00:05>    3  ErrMat   3.70162576  MaxEl -2.91656477
 <Jan01-2013> <00:00:05>    4  ErrMat   2.94969142  MaxEl -1.91814781
 <Jan01-2013> <00:00:05>    5  ErrMat   1.88970508  MaxEl -1.07111527
 <Jan01-2013> <00:00:05>    6  ErrMat   0.04645268  MaxEl -0.01876708
 <Jan01-2013> <00:00:05>    7  ErrMat   0.02377734  MaxEl  0.01063637
 <Jan01-2013> <00:00:05>    8  ErrMat   0.00251040  MaxEl -0.00114123
 <Jan01-2013> <00:00:06>    9  ErrMat   0.00000968  MaxEl -0.00000432
 <Jan01-2013> <00:00:06>   10  ErrMat   0.00000018  MaxEl  0.00000007
 <Jan01-2013> <00:00:06>   11  ErrMat   0.00000000  MaxEl  0.00000000
 <Jan01-2013> <00:00:06>  SCF converged
 <Jan01-2013> <00:00:06>   12  ErrMat   0.00000000  MaxEl  0.00000000
 <Jan01-2013> <00:00:06>   Solutions with partially occupied orbitals may not be
 <Jan01-2013> <00:00:06>   lowest in energy. You might consider lowering the
 <Jan01-2013> <00:00:06>   symmetry in the input and explicitly specifying integer
 <Jan01-2013> <00:00:06>   occupations. In that case always check that you obtain
 <Jan01-2013> <00:00:06>   an aufbau solution.
 <Jan01-2013> <00:00:06>  >>>> POPAN
 <Jan01-2013> <00:00:06>  >>>> DEBYE
 <Jan01-2013> <00:00:06>  NORMAL TERMINATION
 <Jan01-2013> <00:00:06>  END

 *******************************************************************************
 *                                                                             *
 *  -------------------------------------                                      *
 *   Amsterdam Density Functional  (ADF)         2013.01   April 2, 2013       *
 *  -------------------------------------                                      *
 *                                               Build 201304112106            *
 *                                                                             *
 *                                                                             *
 *                            =====================                            *
 *                            |                   |                            *
 *                            |     D I R A C     |                            *
 *                            |                   |                            *
 *                            =====================                            *
 *                                                                             *
 *                                                                             *
 *   Online information and documentation:  http://www.scm.com                 *
 *   E-mail:  support@scm.com   info@scm.com                                   *
 *                                                                             *
 *   Scientific publications using ADF results must be properly referenced     *
 *   See the User Manuals (or the web site) for recommended citations          *
 *   The terms and conditions of the End User License Agreement apply to       *
 *   the use of ADF, http://www.scm.com/Sales/LicAgreement.html                *
 *                                                                             *
 ****************************  x86_64_linux_intel  *****************************
 
 Licensed to: Prof. Cacier Hadad / University of Antioquia / Medellin / COLOMBIA
 SCM User ID: u15319
  
 DIRAC 2013.01  RunTime: Jan01-2013 00:00:06  Nodes: 1  Procs: 1

 Temporary files are created in /tmp/kid_0.pmyoic

1
 MERCURY ATOM all electron RELATIVISTIC, Point Nuc, A and c f
 N J RN H ZN XION ANUC CLIGHT
 5000   22100.00000000197.36710137 80.00000000  0.00000000  201.970625  0.1370360E+03
  PH   PHI     EPS        DEL        DELRVR
  0.30  0.30     2500.00  0.00001000  0.00001000
 IDIRC  NC1  NDEBU NPRIN  IPUN IRCOR IWCOR
   1   300     0     0     0     0     0
   XALPHA      XLATTER      RNUC
  0.70000000  0.00000000  0.00000000 Point Charge
   XN   XL   XJ      XE          XZ      XDELL
  1.0  0.0  0.5   -2600.000       2.000     0.00000
  2.0  0.0  0.5    -425.000       2.000     0.00000
  2.0  1.0  0.5    -425.000       2.000     0.00000
  2.0  1.0  1.5    -425.000       4.000     0.00000
  3.0  0.0  0.5    -100.000       2.000     0.00000
  3.0  1.0  0.5    -100.000       2.000     0.00000
  3.0  1.0  1.5    -100.000       4.000     0.00000
  3.0  2.0  1.5     -80.000       4.000     0.00000
  3.0  2.0  2.5     -80.000       6.000     0.00000
  4.0  0.0  0.5     -22.000       2.000     0.00000
  4.0  1.0  0.5     -20.000       2.000     0.00000
  4.0  1.0  1.5     -20.000       4.000     0.00000
  4.0  2.0  1.5     -11.000       4.000     0.00000
  4.0  2.0  2.5     -11.000       6.000     0.00000
  5.0  0.0  0.5      -3.000       2.000     0.00000
  5.0  1.0  0.5      -2.200       2.000     0.00000
  5.0  1.0  1.5      -2.200       4.000     0.00000
  4.0  3.0  2.5      -1.000       6.000     0.00000
  4.0  3.0  3.5      -1.000       8.000     0.00000
  5.0  2.0  1.5      -0.500       4.000     0.00000
  5.0  2.0  2.5      -0.500       6.000     0.00000
  6.0  0.0  0.5      -0.200       2.000     0.00000
 ICORP=  0  NPCL=  0  DEMP=0.00  PEPS=0.000000
 R(1)=  0.1000000E-08 D=  0.1005080E+01 RNUC=  0.0000000E+00
 converged at cycle   71  DENSITY AVERAGING    0.0786
  MAXIMUM ERROR IN R.V(R) IS   0.62886379E-05
 Q,EY,EV,EZ,ESUM,ETOT,RHO  0.800000E+02 -0.496572E+03 -0.348382E+05 -0.496228E+05 -0.121443E+05 -0.196607E+05  0.241251E-08


 DIRAC CALCULATION
1                    MERCURY ATOM all electron RELATIVISTIC, Point Nuc, A and c from libtc


 EXCHANGE COEFFICIENT=  0.7000000           TAIL CORRECTION=  0.           NUCLEAR RADIUS=  0.000E+00
0                       ORBITAL    N    L    J     ELECTRONS     EIGENVALUE                DELTA OF EIGENV.

                          1S1/2  1.0  0.0  0.5     2.000       -0.3050991E+04                 0.4924760E-04
                          2S1/2  2.0  0.0  0.5     2.000       -0.5405089E+03                 0.4254074E-04
                          2P1/2  2.0  1.0  0.5     2.000       -0.5187363E+03                 0.4411548E-04
                          2P3/2  2.0  1.0  1.5     4.000       -0.4471398E+03                 0.4301762E-04
                          3S1/2  3.0  0.0  0.5     2.000       -0.1282616E+03                 0.3041592E-04
                          3P1/2  3.0  1.0  0.5     2.000       -0.1184367E+03                 0.3137989E-04
                          3P3/2  3.0  1.0  1.5     4.000       -0.1025748E+03                 0.2995242E-04
                          3D3/2  3.0  2.0  1.5     4.000       -0.8626975E+02                 0.3222472E-04
                          3D5/2  3.0  2.0  2.5     6.000       -0.8286728E+02                 0.3175282E-04
                          4S1/2  4.0  0.0  0.5     2.000       -0.2816781E+02                 0.1668735E-04
                          4P1/2  4.0  1.0  0.5     2.000       -0.2395484E+02                 0.1669817E-04
                          4P3/2  4.0  1.0  1.5     4.000       -0.2011425E+02                 0.1516031E-04
                          4D3/2  4.0  2.0  1.5     4.000       -0.1321824E+02                 0.1506585E-04
                          4D5/2  4.0  2.0  2.5     6.000       -0.1250170E+02                 0.1460097E-04
                          5S1/2  5.0  0.0  0.5     2.000       -0.4322160E+01                 0.4190347E-05
                          5P1/2  5.0  1.0  0.5     2.000       -0.2925196E+01                 0.3615407E-05
                          5P3/2  5.0  1.0  1.5     4.000       -0.2244086E+01                 0.2893507E-05
                          4F5/2  4.0  3.0  2.5     6.000       -0.3611586E+01                 0.1388062E-04
                          4F7/2  4.0  3.0  3.5     8.000       -0.3456598E+01                 0.1362401E-04
                          5D3/2  5.0  2.0  1.5     4.000       -0.3813662E+00                 0.1502810E-05
                          5D5/2  5.0  2.0  2.5     6.000       -0.3130964E+00                 0.1345942E-05
                          6S1/2  6.0  0.0  0.5     2.000       -0.2314499E+00                 0.2838078E-06


                                        NUCLEAR CHARGE=   80.000000
                            INTEGRAL OF CHARGE DENSITY=   80.000000
                           SUM OF THE ORBITAL ENERGIES= -12144.2566
                                          TOTAL ENERGY= -19660.7046
                                        KINETIC ENERGY=  22693.9156
                             NUCLEAR ATTRACTION ENERGY= -49622.7822
                             ELECTRON REPULSION ENERGY=   7640.5911
                                       EXCHANGE ENERGY=   -372.4292

 *******************************************************************************

                             D I R A C   E X I T
 NORMAL TERMINATION



 =================
 Timing Statistics
 =================
  
 Total Used :                     CPU=        0.89      System=        0.04     Elapsed=        2.23

 Calls  Section                     ( Mean, Percentage )
 ---------------------------------------------------------------------------------------------------
[...]
    8.O        -1.193950    1.949344   -0.074199
    9.H        -1.032264    2.610164   -0.780487
   10.H        -1.359389    2.461764    0.742925
 <Jan01-2013> <02:22:43>  >>>> CORORT
 <Jan01-2013> <02:22:43>  >>>> FITINT
 <Jan01-2013> <02:22:44>  >>>> CLSMAT
 <Jan01-2013> <02:22:48>  >>>> ORTHON
 <Jan01-2013> <02:22:50>  >>>> GENPT
 <Jan01-2013> <02:22:50>  Acc.Num.Int.=   6.000
 <Jan01-2013> <02:22:50>  Reusing previous cell geometry for gradient smoothing.
 <Jan01-2013> <02:22:51>  Block Length= 128
 <Jan01-2013> <02:22:52>  >>>> PTBAS
 <Jan01-2013> <02:23:20>  >>>> CYCLE
 <Jan01-2013> <02:23:21>    1
 <Jan01-2013> <02:23:26>    2  ErrMat   0.00003646  MaxEl -0.00000576
 <Jan01-2013> <02:23:31>    3  ErrMat   0.00002034  MaxEl -0.00000360
 <Jan01-2013> <02:23:36>    4  ErrMat   0.00001617  MaxEl  0.00000298
 <Jan01-2013> <02:23:42>    5  ErrMat   0.00000344  MaxEl  0.00000050
 <Jan01-2013> <02:23:47>  SCF converged
 <Jan01-2013> <02:23:49>    6  ErrMat   0.00000174  MaxEl -0.00000026
 <Jan01-2013> <02:23:54>  >>>> TOTEN
 <Jan01-2013> <02:24:00>  >>>> POPAN
 <Jan01-2013> <02:24:00>  >>>> DEBYE
 <Jan01-2013> <02:24:00>  >>>> AMETS
 <Jan01-2013> <02:24:01>  >>>> ENGRAD
  Coordinates in Frequency Displacement 51
    Atom         X           Y           Z   (Angstrom)
    1.Hg        0.114812    0.012173    0.010454
    2.O        -1.809402   -0.945735    0.203429
    3.H        -1.898355   -1.906787    0.025408
    4.H        -2.562646   -0.486620   -0.226442
    5.O         2.235542    0.118853   -0.158615
    6.H         2.733014   -0.727211   -0.204796
    7.H         2.720116    0.715092    0.453398
    8.O        -1.193950    1.949344   -0.074199
    9.H        -1.042264    2.600164   -0.780487
   10.H        -1.359389    2.461764    0.742925
 <Jan01-2013> <02:24:48>  >>>> CORORT
 <Jan01-2013> <02:24:48>  >>>> FITINT
 <Jan01-2013> <02:24:49>  >>>> CLSMAT
 <Jan01-2013> <02:24:51>  >>>> ORTHON
 <Jan01-2013> <02:24:51>  >>>> GENPT
 <Jan01-2013> <02:24:51>  Acc.Num.Int.=   6.000
 <Jan01-2013> <02:24:52>  Reusing previous cell geometry for gradient smoothing.
 <Jan01-2013> <02:24:52>  Block Length= 128
 <Jan01-2013> <02:24:53>  >>>> PTBAS
 <Jan01-2013> <02:25:20>  >>>> CYCLE
 <Jan01-2013> <02:25:23>    1
 <Jan01-2013> <02:25:28>    2  ErrMat   0.02034876  MaxEl  0.00470068
 <Jan01-2013> <02:25:32>    3  ErrMat   0.00957400  MaxEl  0.00218282
 <Jan01-2013> <02:25:37>    4  ErrMat   0.00664133  MaxEl -0.00112237
 <Jan01-2013> <02:25:48>    5  ErrMat   0.00225322  MaxEl  0.00027459
 <Jan01-2013> <02:25:54>    6  ErrMat   0.00043600  MaxEl  0.00004760
 <Jan01-2013> <02:25:59>    7  ErrMat   0.00022807  MaxEl -0.00003056
 <Jan01-2013> <02:26:04>    8  ErrMat   0.00006882  MaxEl -0.00000935
 <Jan01-2013> <02:26:08>    9  ErrMat   0.00001001  MaxEl  0.00000130
 <Jan01-2013> <02:26:12>   10  ErrMat   0.00000996  MaxEl  0.00000160
 <Jan01-2013> <02:26:16>   11  ErrMat   0.00000167  MaxEl  0.00000021
 <Jan01-2013> <02:26:19>  SCF converged
 <Jan01-2013> <02:26:21>   12  ErrMat   0.00000034  MaxEl  0.00000004
 <Jan01-2013> <02:26:26>  >>>> TOTEN
 <Jan01-2013> <02:26:33>  >>>> POPAN
 <Jan01-2013> <02:26:33>  >>>> DEBYE
 <Jan01-2013> <02:26:33>  >>>> AMETS
 <Jan01-2013> <02:26:33>  >>>> ENGRAD
  Coordinates in Frequency Displacement 52
    Atom         X           Y           Z   (Angstrom)
    1.Hg        0.114812    0.012173    0.010454
    2.O        -1.809402   -0.945735    0.203429
    3.H        -1.898355   -1.906787    0.025408
    4.H        -2.562646   -0.486620   -0.226442
    5.O         2.235542    0.118853   -0.158615
    6.H         2.733014   -0.727211   -0.204796
    7.H         2.720116    0.715092    0.453398
    8.O        -1.193950    1.949344   -0.074199
    9.H        -1.042264    2.620164   -0.780487
   10.H        -1.359389    2.461764    0.742925
 <Jan01-2013> <02:27:21>  >>>> CORORT
 <Jan01-2013> <02:27:21>  >>>> FITINT
 <Jan01-2013> <02:27:22>  >>>> CLSMAT
 <Jan01-2013> <02:27:25>  >>>> ORTHON
 <Jan01-2013> <02:27:26>  >>>> GENPT
 <Jan01-2013> <02:27:26>  Acc.Num.Int.=   6.000
 <Jan01-2013> <02:27:26>  Reusing previous cell geometry for gradient smoothing.
 <Jan01-2013> <02:27:26>  Block Length= 128
 <Jan01-2013> <02:27:27>  >>>> PTBAS
 <Jan01-2013> <02:27:57>  >>>> CYCLE
 <Jan01-2013> <02:27:59>    1
 <Jan01-2013> <02:28:06>    2  ErrMat   0.00015574  MaxEl -0.00003179
 <Jan01-2013> <02:28:16>    3  ErrMat   0.00006173  MaxEl  0.00001203
 <Jan01-2013> <02:28:21>    4  ErrMat   0.00002907  MaxEl  0.00000341
 <Jan01-2013> <02:28:26>    5  ErrMat   0.00001515  MaxEl -0.00000235
 <Jan01-2013> <02:28:35>    6  ErrMat   0.00000525  MaxEl -0.00000075
 <Jan01-2013> <02:28:39>  SCF converged
 <Jan01-2013> <02:28:41>    7  ErrMat   0.00000107  MaxEl  0.00000011
 <Jan01-2013> <02:28:45>  >>>> TOTEN
 <Jan01-2013> <02:28:51>  >>>> POPAN
 <Jan01-2013> <02:28:51>  >>>> DEBYE
 <Jan01-2013> <02:28:51>  >>>> AMETS
 <Jan01-2013> <02:28:52>  >>>> ENGRAD
  Coordinates in Frequency Displacement 53
    Atom         X           Y           Z   (Angstrom)
    1.Hg        0.114812    0.012173    0.010454
    2.O        -1.809402   -0.945735    0.203429
    3.H        -1.898355   -1.906787    0.025408
    4.H        -2.562646   -0.486620   -0.226442
    5.O         2.235542    0.118853   -0.158615
    6.H         2.733014   -0.727211   -0.204796
    7.H         2.720116    0.715092    0.453398
    8.O        -1.193950    1.949344   -0.074199
    9.H        -1.042264    2.610164   -0.790487
   10.H        -1.359389    2.461764    0.742925
 <Jan01-2013> <02:29:36>  >>>> CORORT
 <Jan01-2013> <02:29:36>  >>>> FITINT
 <Jan01-2013> <02:29:37>  >>>> CLSMAT
 <Jan01-2013> <02:29:40>  >>>> ORTHON
 <Jan01-2013> <02:29:41>  >>>> GENPT
 <Jan01-2013> <02:29:41>  Acc.Num.Int.=   6.000
 <Jan01-2013> <02:29:41>  Reusing previous cell geometry for gradient smoothing.
 <Jan01-2013> <02:29:41>  Block Length= 128
 <Jan01-2013> <02:29:43>  >>>> PTBAS
 <Jan01-2013> <02:30:09>  >>>> CYCLE
 <Jan01-2013> <02:30:11>    1
 <Jan01-2013> <02:30:17>    2  ErrMat   0.01963221  MaxEl  0.00401919
 <Jan01-2013> <02:30:26>    3  ErrMat   0.00959566  MaxEl  0.00200976
 <Jan01-2013> <02:30:31>    4  ErrMat   0.00714517  MaxEl  0.00145224
 <Jan01-2013> <02:30:38>    5  ErrMat   0.00179790  MaxEl  0.00021789
 <Jan01-2013> <02:30:44>    6  ErrMat   0.00044758  MaxEl -0.00006864
 <Jan01-2013> <02:30:49>    7  ErrMat   0.00021017  MaxEl  0.00002645
 <Jan01-2013> <02:30:54>    8  ErrMat   0.00003811  MaxEl -0.00000462
 <Jan01-2013> <02:30:59>    9  ErrMat   0.00001224  MaxEl  0.00000140
 <Jan01-2013> <02:31:04>   10  ErrMat   0.00000746  MaxEl -0.00000111
 <Jan01-2013> <02:31:11>   11  ErrMat   0.00000094  MaxEl -0.00000012
 <Jan01-2013> <02:31:14>  SCF converged
 <Jan01-2013> <02:31:17>   12  ErrMat   0.00000023  MaxEl -0.00000003
 <Jan01-2013> <02:31:23>  >>>> TOTEN
 <Jan01-2013> <02:31:28>  >>>> POPAN
 <Jan01-2013> <02:31:28>  >>>> DEBYE
 <Jan01-2013> <02:31:29>  >>>> AMETS
 <Jan01-2013> <02:31:29>  >>>> ENGRAD
  Coordinates in Frequency Displacement 54
    Atom         X           Y           Z   (Angstrom)
    1.Hg        0.114812    0.012173    0.010454
    2.O        -1.809402   -0.945735    0.203429
    3.H        -1.898355   -1.906787    0.025408
    4.H        -2.562646   -0.486620   -0.226442
    5.O         2.235542    0.118853   -0.158615
    6.H         2.733014   -0.727211   -0.204796
    7.H         2.720116    0.715092    0.453398
    8.O        -1.193950    1.949344   -0.074199
    9.H        -1.042264    2.610164   -0.770487
   10.H        -1.359389    2.461764    0.742925
 <Jan01-2013> <02:32:13>  >>>> CORORT
 <Jan01-2013> <02:32:13>  >>>> FITINT
 <Jan01-2013> <02:32:14>  >>>> CLSMAT
 <Jan01-2013> <02:32:17>  >>>> ORTHON
 <Jan01-2013> <02:32:18>  >>>> GENPT
 <Jan01-2013> <02:32:18>  Acc.Num.Int.=   6.000
 <Jan01-2013> <02:32:18>  Reusing previous cell geometry for gradient smoothing.
 <Jan01-2013> <02:32:19>  Block Length= 128
 <Jan01-2013> <02:32:19>  >>>> PTBAS
 <Jan01-2013> <02:32:47>  >>>> CYCLE
 <Jan01-2013> <02:32:49>    1
 <Jan01-2013> <02:32:54>    2  ErrMat   0.00019618  MaxEl -0.00004116
 <Jan01-2013> <02:32:59>    3  ErrMat   0.00008072  MaxEl -0.00001454
 <Jan01-2013> <02:33:06>    4  ErrMat   0.00004358  MaxEl -0.00000643
 <Jan01-2013> <02:33:12>    5  ErrMat   0.00001845  MaxEl -0.00000286
 <Jan01-2013> <02:33:18>    6  ErrMat   0.00000488  MaxEl -0.00000070
 <Jan01-2013> <02:33:21>  SCF converged
 <Jan01-2013> <02:33:24>    7  ErrMat   0.00000198  MaxEl -0.00000017
 <Jan01-2013> <02:33:30>  >>>> TOTEN
 <Jan01-2013> <02:33:36>  >>>> POPAN
 <Jan01-2013> <02:33:36>  >>>> DEBYE
 <Jan01-2013> <02:33:37>  >>>> AMETS
 <Jan01-2013> <02:33:37>  >>>> ENGRAD
  Coordinates in Frequency Displacement 55
    Atom         X           Y           Z   (Angstrom)
    1.Hg        0.114812    0.012173    0.010454
    2.O        -1.809402   -0.945735    0.203429
    3.H        -1.898355   -1.906787    0.025408
    4.H        -2.562646   -0.486620   -0.226442
    5.O         2.235542    0.118853   -0.158615
    6.H         2.733014   -0.727211   -0.204796
    7.H         2.720116    0.715092    0.453398
    8.O        -1.193950    1.949344   -0.074199
    9.H        -1.042264    2.610164   -0.780487
   10.H        -1.369389    2.461764    0.742925
 <Jan01-2013> <02:34:31>  >>>> CORORT
 <Jan01-2013> <02:34:31>  >>>> FITINT
 <Jan01-2013> <02:34:32>  >>>> CLSMAT
 <Jan01-2013> <02:34:35>  >>>> ORTHON
 <Jan01-2013> <02:34:36>  >>>> GENPT
 <Jan01-2013> <02:34:36>  Acc.Num.Int.=   6.000
 <Jan01-2013> <02:34:36>  Reusing previous cell geometry for gradient smoothing.
 <Jan01-2013> <02:34:36>  Block Length= 128
 <Jan01-2013> <02:34:37>  >>>> PTBAS
 <Jan01-2013> <02:35:04>  >>>> CYCLE
 <Jan01-2013> <02:35:06>    1
 <Jan01-2013> <02:35:10>    2  ErrMat   0.01349548  MaxEl -0.00342721
 <Jan01-2013> <02:35:16>    3  ErrMat   0.00855434  MaxEl -0.00226997
 <Jan01-2013> <02:35:21>    4  ErrMat   0.00746085  MaxEl  0.00124857
 <Jan01-2013> <02:35:26>    5  ErrMat   0.00122551  MaxEl -0.00016909
 <Jan01-2013> <02:35:31>    6  ErrMat   0.00032331  MaxEl  0.00003276
 <Jan01-2013> <02:35:37>    7  ErrMat   0.00010591  MaxEl  0.00001021
 <Jan01-2013> <02:35:42>    8  ErrMat   0.00002472  MaxEl -0.00000439
 <Jan01-2013> <02:35:48>    9  ErrMat   0.00001043  MaxEl -0.00000192
 <Jan01-2013> <02:35:53>   10  ErrMat   0.00000283  MaxEl -0.00000050
 <Jan01-2013> <02:35:56>  SCF converged
 <Jan01-2013> <02:35:59>   11  ErrMat   0.00000133  MaxEl -0.00000026
 <Jan01-2013> <02:36:04>  >>>> TOTEN
 <Jan01-2013> <02:36:09>  >>>> POPAN
 <Jan01-2013> <02:36:09>  >>>> DEBYE
 <Jan01-2013> <02:36:10>  >>>> AMETS
 <Jan01-2013> <02:36:10>  >>>> ENGRAD
  Coordinates in Frequency Displacement 56
    Atom         X           Y           Z   (Angstrom)
    1.Hg        0.114812    0.012173    0.010454
    2.O        -1.809402   -0.945735    0.203429
    3.H        -1.898355   -1.906787    0.025408
    4.H        -2.562646   -0.486620   -0.226442
    5.O         2.235542    0.118853   -0.158615
    6.H         2.733014   -0.727211   -0.204796
    7.H         2.720116    0.715092    0.453398
    8.O        -1.193950    1.949344   -0.074199
    9.H        -1.042264    2.610164   -0.780487
   10.H        -1.349389    2.461764    0.742925
 <Jan01-2013> <02:36:51>  >>>> CORORT
 <Jan01-2013> <02:36:51>  >>>> FITINT
 <Jan01-2013> <02:36:52>  >>>> CLSMAT
 <Jan01-2013> <02:36:56>  >>>> ORTHON
 <Jan01-2013> <02:36:58>  >>>> GENPT
 <Jan01-2013> <02:36:58>  Acc.Num.Int.=   6.000
 <Jan01-2013> <02:36:58>  Reusing previous cell geometry for gradient smoothing.
 <Jan01-2013> <02:36:58>  Block Length= 128
 <Jan01-2013> <02:36:59>  >>>> PTBAS
 <Jan01-2013> <02:37:24>  >>>> CYCLE
 <Jan01-2013> <02:37:26>    1
 <Jan01-2013> <02:37:31>    2  ErrMat   0.00002921  MaxEl  0.00000537
 <Jan01-2013> <02:37:41>    3  ErrMat   0.00001943  MaxEl  0.00000368
 <Jan01-2013> <02:37:46>    4  ErrMat   0.00001480  MaxEl  0.00000309
 <Jan01-2013> <02:37:59>    5  ErrMat   0.00000325  MaxEl -0.00000042
 <Jan01-2013> <02:38:03>  SCF converged
 <Jan01-2013> <02:38:05>    6  ErrMat   0.00000150  MaxEl  0.00000016
 <Jan01-2013> <02:38:11>  >>>> TOTEN
 <Jan01-2013> <02:38:16>  >>>> POPAN
 <Jan01-2013> <02:38:16>  >>>> DEBYE
 <Jan01-2013> <02:38:16>  >>>> AMETS
 <Jan01-2013> <02:38:17>  >>>> ENGRAD
  Coordinates in Frequency Displacement 57
    Atom         X           Y           Z   (Angstrom)
    1.Hg        0.114812    0.012173    0.010454
    2.O        -1.809402   -0.945735    0.203429
    3.H        -1.898355   -1.906787    0.025408
    4.H        -2.562646   -0.486620   -0.226442
    5.O         2.235542    0.118853   -0.158615
    6.H         2.733014   -0.727211   -0.204796
    7.H         2.720116    0.715092    0.453398
    8.O        -1.193950    1.949344   -0.074199
    9.H        -1.042264    2.610164   -0.780487
   10.H        -1.359389    2.451764    0.742925
 <Jan01-2013> <02:38:59>  >>>> CORORT
 <Jan01-2013> <02:39:00>  >>>> FITINT
 <Jan01-2013> <02:39:00>  >>>> CLSMAT
 <Jan01-2013> <02:39:05>  >>>> ORTHON
 <Jan01-2013> <02:39:06>  >>>> GENPT
 <Jan01-2013> <02:39:06>  Acc.Num.Int.=   6.000
 <Jan01-2013> <02:39:06>  Reusing previous cell geometry for gradient smoothing.
 <Jan01-2013> <02:39:07>  Block Length= 128
 <Jan01-2013> <02:39:08>  >>>> PTBAS
 <Jan01-2013> <02:39:36>  >>>> CYCLE
 <Jan01-2013> <02:39:38>    1
 <Jan01-2013> <02:39:45>    2  ErrMat   0.01809600  MaxEl -0.00422353
 <Jan01-2013> <02:39:50>    3  ErrMat   0.00918683  MaxEl -0.00198386
 <Jan01-2013> <02:39:56>    4  ErrMat   0.00690469  MaxEl -0.00127274
 <Jan01-2013> <02:40:02>    5  ErrMat   0.00210661  MaxEl  0.00024391
 <Jan01-2013> <02:40:09>    6  ErrMat   0.00041506  MaxEl  0.00004209
 <Jan01-2013> <02:40:15>    7  ErrMat   0.00019132  MaxEl -0.00002619
 <Jan01-2013> <02:40:20>    8  ErrMat   0.00007721  MaxEl -0.00001108
 <Jan01-2013> <02:40:27>    9  ErrMat   0.00000869  MaxEl  0.00000126
 <Jan01-2013> <02:40:33>   10  ErrMat   0.00000890  MaxEl  0.00000134
 <Jan01-2013> <02:40:42>   11  ErrMat   0.00000163  MaxEl  0.00000022
 <Jan01-2013> <02:40:48>  SCF converged
 <Jan01-2013> <02:40:51>   12  ErrMat   0.00000036  MaxEl -0.00000003
 <Jan01-2013> <02:41:01>  >>>> TOTEN
 <Jan01-2013> <02:41:11>  >>>> POPAN
 <Jan01-2013> <02:41:11>  >>>> DEBYE
 <Jan01-2013> <02:41:12>  >>>> AMETS
 <Jan01-2013> <02:41:12>  >>>> ENGRAD
  Coordinates in Frequency Displacement 58
    Atom         X           Y           Z   (Angstrom)
    1.Hg        0.114812    0.012173    0.010454
    2.O        -1.809402   -0.945735    0.203429
    3.H        -1.898355   -1.906787    0.025408
    4.H        -2.562646   -0.486620   -0.226442
    5.O         2.235542    0.118853   -0.158615
    6.H         2.733014   -0.727211   -0.204796
    7.H         2.720116    0.715092    0.453398
    8.O        -1.193950    1.949344   -0.074199
    9.H        -1.042264    2.610164   -0.780487
   10.H        -1.359389    2.471764    0.742925
 <Jan01-2013> <02:42:19>  >>>> CORORT
 <Jan01-2013> <02:42:19>  >>>> FITINT
 <Jan01-2013> <02:42:20>  >>>> CLSMAT
 <Jan01-2013> <02:42:23>  >>>> ORTHON
 <Jan01-2013> <02:42:24>  >>>> GENPT
 <Jan01-2013> <02:42:24>  Acc.Num.Int.=   6.000
 <Jan01-2013> <02:42:24>  Reusing previous cell geometry for gradient smoothing.
 <Jan01-2013> <02:42:24>  Block Length= 128
 <Jan01-2013> <02:42:25>  >>>> PTBAS
 <Jan01-2013> <02:42:55>  >>>> CYCLE
 <Jan01-2013> <02:42:58>    1
 <Jan01-2013> <02:43:06>    2  ErrMat   0.00010651  MaxEl -0.00002125
 <Jan01-2013> <02:43:13>    3  ErrMat   0.00004538  MaxEl -0.00000779
 <Jan01-2013> <02:43:20>    4  ErrMat   0.00002269  MaxEl  0.00000311
 <Jan01-2013> <02:43:28>    5  ErrMat   0.00001047  MaxEl -0.00000162
 <Jan01-2013> <02:43:38>    6  ErrMat   0.00000338  MaxEl -0.00000048
 <Jan01-2013> <02:43:44>  SCF converged
 <Jan01-2013> <02:43:47>    7  ErrMat   0.00000065  MaxEl  0.00000007
 <Jan01-2013> <02:43:53>  >>>> TOTEN
 <Jan01-2013> <02:43:59>  >>>> POPAN
 <Jan01-2013> <02:43:59>  >>>> DEBYE
 <Jan01-2013> <02:44:00>  >>>> AMETS
 <Jan01-2013> <02:44:01>  >>>> ENGRAD
  Coordinates in Frequency Displacement 59
    Atom         X           Y           Z   (Angstrom)
    1.Hg        0.114812    0.012173    0.010454
    2.O        -1.809402   -0.945735    0.203429
    3.H        -1.898355   -1.906787    0.025408
    4.H        -2.562646   -0.486620   -0.226442
    5.O         2.235542    0.118853   -0.158615
    6.H         2.733014   -0.727211   -0.204796
    7.H         2.720116    0.715092    0.453398
    8.O        -1.193950    1.949344   -0.074199
    9.H        -1.042264    2.610164   -0.780487
   10.H        -1.359389    2.461764    0.732925
 <Jan01-2013> <02:45:06>  >>>> CORORT
 <Jan01-2013> <02:45:07>  >>>> FITINT
 <Jan01-2013> <02:45:08>  >>>> CLSMAT
 <Jan01-2013> <02:45:11>  >>>> ORTHON
 <Jan01-2013> <02:45:11>  >>>> GENPT
 <Jan01-2013> <02:45:11>  Acc.Num.Int.=   6.000
 <Jan01-2013> <02:45:11>  Reusing previous cell geometry for gradient smoothing.
 <Jan01-2013> <02:45:12>  Block Length= 128
 <Jan01-2013> <02:45:13>  >>>> PTBAS
 <Jan01-2013> <02:45:49>  >>>> CYCLE
 <Jan01-2013> <02:45:51>    1
 <Jan01-2013> <02:45:57>    2  ErrMat   0.02112335  MaxEl -0.00500124
 <Jan01-2013> <02:46:04>    3  ErrMat   0.00977969  MaxEl -0.00212712
 <Jan01-2013> <02:46:10>    4  ErrMat   0.00686473  MaxEl  0.00106500
 <Jan01-2013> <02:46:17>    5  ErrMat   0.00192302  MaxEl -0.00026630
 <Jan01-2013> <02:46:24>    6  ErrMat   0.00047748  MaxEl -0.00007009
 <Jan01-2013> <02:46:29>    7  ErrMat   0.00021688  MaxEl -0.00002455
 <Jan01-2013> <02:46:39>    8  ErrMat   0.00003794  MaxEl -0.00000478
 <Jan01-2013> <02:46:46>    9  ErrMat   0.00001199  MaxEl -0.00000159
 <Jan01-2013> <02:46:53>   10  ErrMat   0.00000791  MaxEl  0.00000126
 <Jan01-2013> <02:47:01>   11  ErrMat   0.00000098  MaxEl  0.00000010
 <Jan01-2013> <02:47:05>  SCF converged
 <Jan01-2013> <02:47:08>   12  ErrMat   0.00000035  MaxEl  0.00000004
 <Jan01-2013> <02:47:13>  >>>> TOTEN
 <Jan01-2013> <02:47:20>  >>>> POPAN
 <Jan01-2013> <02:47:20>  >>>> DEBYE
 <Jan01-2013> <02:47:20>  >>>> AMETS
 <Jan01-2013> <02:47:21>  >>>> ENGRAD
  Coordinates in Frequency Displacement 60
    Atom         X           Y           Z   (Angstrom)
    1.Hg        0.114812    0.012173    0.010454
    2.O        -1.809402   -0.945735    0.203429
    3.H        -1.898355   -1.906787    0.025408
    4.H        -2.562646   -0.486620   -0.226442
    5.O         2.235542    0.118853   -0.158615
    6.H         2.733014   -0.727211   -0.204796
    7.H         2.720116    0.715092    0.453398
    8.O        -1.193950    1.949344   -0.074199
    9.H        -1.042264    2.610164   -0.780487
   10.H        -1.359389    2.461764    0.752925
 <Jan01-2013> <02:48:43>  >>>> CORORT
 <Jan01-2013> <02:48:43>  >>>> FITINT
 <Jan01-2013> <02:48:44>  >>>> CLSMAT
 <Jan01-2013> <02:48:47>  >>>> ORTHON
 <Jan01-2013> <02:48:48>  >>>> GENPT
 <Jan01-2013> <02:48:48>  Acc.Num.Int.=   6.000
 <Jan01-2013> <02:48:48>  Reusing previous cell geometry for gradient smoothing.
 <Jan01-2013> <02:48:49>  Block Length= 128
 <Jan01-2013> <02:48:50>  >>>> PTBAS
 <Jan01-2013> <02:49:24>  >>>> CYCLE
 <Jan01-2013> <02:49:27>    1
 <Jan01-2013> <02:49:35>    2  ErrMat   0.00021908  MaxEl -0.00004760
 <Jan01-2013> <02:49:43>    3  ErrMat   0.00008862  MaxEl -0.00001708
 <Jan01-2013> <02:49:52>    4  ErrMat   0.00005034  MaxEl  0.00000606
 <Jan01-2013> <02:50:02>    5  ErrMat   0.00001979  MaxEl  0.00000279
 <Jan01-2013> <02:50:10>    6  ErrMat   0.00000593  MaxEl -0.00000084
 <Jan01-2013> <02:50:15>  SCF converged
 <Jan01-2013> <02:50:18>    7  ErrMat   0.00000217  MaxEl -0.00000023
 <Jan01-2013> <02:50:25>  >>>> TOTEN
 <Jan01-2013> <02:50:33>  >>>> POPAN
 <Jan01-2013> <02:50:33>  >>>> DEBYE
 <Jan01-2013> <02:50:34>  >>>> AMETS
 <Jan01-2013> <02:50:36>  >>>> ENGRAD
 <Jan01-2013> <02:51:53>  Force Constants computed
 <Jan01-2013> <02:51:53>  NORMAL TERMINATION
 <Jan01-2013> <02:51:53>  END
 <Jan01-2013> <02:51:53>  Total Bonding Energy: -41.54295115
