
 *******************************************************************************
 *                                                                             *
 *  -------------------------------------                                      *
 *   Amsterdam Density Functional  (ADF)         2013.01   April 2, 2013       *
 *  -------------------------------------                                      *
 *                                               Build 201304112106            *
 *                                                                             *
 *                                                                             *
 *                            =====================                            *
 *                            |                   |                            *
 *                            |     D I R A C     |                            *
 *                            |                   |                            *
 *                            =====================                            *
 *                                                                             *
 *                                                                             *
 *   Online information and documentation:  http://www.scm.com                 *
 *   E-mail:  support@scm.com   info@scm.com                                   *
 *                                                                             *
 *   Scientific publications using ADF results must be properly referenced     *
 *   See the User Manuals (or the web site) for recommended citations          *
 *   The terms and conditions of the End User License Agreement apply to       *
 *   the use of ADF, http://www.scm.com/Sales/LicAgreement.html                *
 *                                                                             *
 ****************************  x86_64_linux_intel  *****************************
 
 Licensed to: Prof. Cacier Hadad / University of Antioquia / Medellin / COLOMBIA
 SCM User ID: u15319
  
 DIRAC 2013.01  RunTime: Jan01-2013 00:00:01  Nodes: 1  Procs: 1

 Temporary files are created in /tmp/kid_0.ITBhvY

1
 HYDROGEN ATOM RELATIVISTIC, Point Nuc, A and c from libtc   
 N J RN H ZN XION ANUC CLIGHT
 5000    1100.00000000197.36710137  1.00000000  0.00000000    1.007825  0.1370360E+03
  PH   PHI     EPS        DEL        DELRVR
  0.30  0.30     2500.00  0.00001000  0.00001000
 IDIRC  NC1  NDEBU NPRIN  IPUN IRCOR IWCOR
   1   300     0     0     0     0     0
   XALPHA      XLATTER      RNUC
  0.70000000  0.00000000  0.00000000 Point Charge
   XN   XL   XJ      XE          XZ      XDELL
  1.0  0.0  0.5      -1.000       1.000     0.00000
 ICORP=  0  NPCL=  0  DEMP=0.00  PEPS=0.000000
 R(1)=  0.1000000E-08 D=  0.1005080E+01 RNUC=  0.0000000E+00
 converged at cycle   32  DENSITY AVERAGING    0.2400
  MAXIMUM ERROR IN R.V(R) IS   0.79874357E-05
 Q,EY,EV,EZ,ESUM,ETOT,RHO  0.100000E+01 -0.266614E+00 -0.619969E+00 -0.910779E+00 -0.203940E+00 -0.415998E+00  0.337036E-17


 DIRAC CALCULATION
1                    HYDROGEN ATOM RELATIVISTIC, Point Nuc, A and c from libtc


 EXCHANGE COEFFICIENT=  0.7000000           TAIL CORRECTION=  0.           NUCLEAR RADIUS=  0.000E+00
0                       ORBITAL    N    L    J     ELECTRONS     EIGENVALUE                DELTA OF EIGENV.

                          1S1/2  1.0  0.0  0.5     1.000       -0.2039397E+00                 0.2720093E-06


                                        NUCLEAR CHARGE=    1.000000
                            INTEGRAL OF CHARGE DENSITY=    1.000000
                           SUM OF THE ORBITAL ENERGIES=     -0.2039
                                          TOTAL ENERGY=     -0.4160
                                        KINETIC ENERGY=      0.4160
                             NUCLEAR ATTRACTION ENERGY=     -0.9108
                             ELECTRON REPULSION ENERGY=      0.2787
                                       EXCHANGE ENERGY=     -0.2000

 *******************************************************************************

                             D I R A C   E X I T
 NORMAL TERMINATION



 =================
 Timing Statistics
 =================
  
 Total Used :                     CPU=        0.13      System=        0.03     Elapsed=        0.48

 Calls  Section                     ( Mean, Percentage )
 ---------------------------------------------------------------------------------------------------
     2  ><      ................      0.00    0.00             0.00    0.05             0.00    0.01
     1  EXIT PROCEDURE .........      0.13  100.00             0.03   99.95             0.48   99.99


 Currently Open Files (EXIT00)
 ====================

 Unit    Access Format  Status   Type       Ident (file)
 -------------------------------------------------------
   3      SEQ    FORM   TRANSP  NORMAL      LOGFILE
                                          ( logfile )


 Buffered I/O statistics
 =======================
 Memory available:                     67108864
 Number of records fitting in memory:     16131
 Input : 100.0% of                            0  *4k bytes
 Output: 100.0% of                            0  *4k bytes
 Records from serial files evicted:           0
                    others evicted:           0
 Hash table lookups:          0 with          0 conflicts (100.00%)
(INPUT FILE)
Create H   file=/home/andyzapa/adf2013.01/atomicdata/ZORA/QZ4P/H
 XC
 GGA PBE
End
relativistic ZORA
Corepotentials t12.rel
End Input

 *******************************************************************************
 *                                                                             *
 *  -------------------------------------                                      *
 *   Amsterdam Density Functional  (ADF)         2013.01   April 2, 2013       *
 *  -------------------------------------                                      *
 *                                               Build 201304112215            *
 *                                                                             *
 *                                                                             *
 *                              =================                              *
 *                              |               |                              *
 *                              |     A D F     |                              *
 *                              |               |                              *
 *                              =================                              *
 *                                                                             *
 *                                                                             *
 *   Online information and documentation:  http://www.scm.com                 *
 *   E-mail:  support@scm.com   info@scm.com                                   *
 *                                                                             *
 *   Scientific publications using ADF results must be properly referenced     *
 *   See the User Manuals (or the web site) for recommended citations          *
 *   The terms and conditions of the End User License Agreement apply to       *
 *   the use of ADF, http://www.scm.com/Sales/LicAgreement.html                *
 *                                                                             *
 ********************  x86_64_linux_intel / platform_mpi  **********************
 
 Licensed to: Prof. Cacier Hadad / University of Antioquia / Medellin / COLOMBIA
 SCM User ID: u15319
  
 ADF 2013.01  RunTime: Jan01-2013 00:00:01  Nodes: 1  Procs: 1

 Temporary files are created in /tmp/kid_0.ynlc5B

 Hydrogen (QZ, all electron, 5S 2P 2D)



 ===========================
 A T T A C H E D   F I L E S
 ===========================
  
 CREATE - Data File:    /home/andyzapa/adf2013.01/atomicdata/ZORA/QZ4P/H
                        Hydrogen (QZ, all electron, 5S 2P 2D)
 Core Potentials:
         file : t12.rel



 ===============================
 M O D E L   P A R A M E T E R S
 ===============================
  
 DENSITY FUNCTIONAL POTENTIAL (scf)
    LDA:                               PW92                                    == Not Default ==
    Gradient Corrections:              PBEc PBEx                               == Not Default ==

 SPIN  (restricted / unrestr.)
    Molecule:                          Restricted                               

 OTHER ASPECTS
    Relativistic Corrections:          scalar (ZORA,SAPA)                      == Not Default ==

    Nuclear Charge Density Model:      Point Charge Nuclei                                                                                                                                                                                     
    Core Treatment:                    Frozen Orbital(s)                        

    Hyperfine or Zeeman Interaction:   ---                                      



 =====================================
 S Y M M E T R Y ,   E L E C T R O N S
 =====================================
  
 Symmetry: ATOM

 Irreducible Representations, including subspecies
 -------------------------------------------------
 S
 P:x  P:y  P:z
 D:z2  D:x2-y2  D:xy  D:xz  D:yz
 F:z3  F:z  F:xyz  F:z2x  F:z2y  F:x  F:y


 Configuration of Valence Electrons
 ==================================

          Occupation Numbers
          -------------------------------------------------
 S        1
 P        0
 D        0
 F        0
          -------------------------------------------------

 Total:   1

 Net Charge: 0 (Nuclei minus Electrons)

 Preset values for MO occupations will be applied through SCF cycle no. 1000000
 Thereafter, the program will assign electrons to MOs that are spatially
 similar to the occupied MOs in a "reference" cycle ("KeepOrbitals").
 The reference cycle is always the PREVIOUS cycle: it will evolve with
 the SCF procedure.



 ================================
 (Slater-type)  F U N C T I O N S  ***  (Basis and Fit)  ***
 ================================
  

 Atom Type    1  (H)
 ==============

 Valence Basis Sets:   9
 -----------------------
   1 S    3.300000
   1 S    2.000000
   1 S    1.400000
   1 S    1.000000
   1 S    0.710000
   2 P    2.000000
   2 P    1.000000
   3 D    2.500000
   3 D    1.500000

 Charge Fitting Sets (for the computation of the Coulomb Potential):  22
 -----------------------------------------------------------------------
   1 S    6.600000
   1 S    4.620000
   1 S    3.230000
   1 S    2.260000
   1 S    1.580000
   1 S    1.100000
   1 S    0.770000
   2 S    1.000000
   2 P    5.300000
   2 P    3.870000
   2 P    2.820000
   2 P    2.060000
   2 P    1.500000
   3 D    5.800000
   3 D    4.070000
   3 D    2.850000
   3 D    2.000000
   4 F    4.500000
   4 F    3.350000
   4 F    2.500000
   5 G    5.000000
   5 G    3.000000


 BAS: List of all Elementary Cartesian Basis Functions
 =====================================================

 The numbering in the list below (to the right of the function characteristics) is referred
 to in print-outs of MO eigenvectors and Mulliken populations in the BAS representation
 (as contrasted to the SFO representation).

 Notes:
 1. The functions are characterized by a polynomial prefactor (powers of x,y,z and r) and
    an exponential decay factor alpha.
 2. Since the basis sets are specific for an atom TYPE, the individual functions occur on
    all atoms of that type.
 3. The word 'Core' in the left margin signals that it is a Core Function (CF) : not a
    degree of freedom in the valence set, but only used to ensure orthogonalization of
    the other valence basis functions on the frozen Core Orbitals.


 (power of) X  Y  Z  R     Alpha  on Atom
            ==========     =====     ==========

 H                                    1
                                  ---------------------------------------------------------------------------
            0  0  0  0     3.300      1
            0  0  0  0     2.000      2
            0  0  0  0     1.400      3
            0  0  0  0     1.000      4
            0  0  0  0     0.710      5
            1  0  0  0     2.000      6
            0  1  0  0     2.000      7
            0  0  1  0     2.000      8
            1  0  0  0     1.000      9
            0  1  0  0     1.000     10
            0  0  1  0     1.000     11
            2  0  0  0     2.500     12
            1  1  0  0     2.500     13
            1  0  1  0     2.500     14
            0  2  0  0     2.500     15
            0  1  1  0     2.500     16
            0  0  2  0     2.500     17
            2  0  0  0     1.500     18
            1  1  0  0     1.500     19
            1  0  1  0     1.500     20
            0  2  0  0     1.500     21
            0  1  1  0     1.500     22
            0  0  2  0     1.500     23

 Total number of charge fitting functions (nprimf)       107
 Total number of Cartesian basis functions (naos)         23
 Total number of Cartesian core functions  (ncos)          0



 BAS: List of all Elementary Cartesian Basis Functions
 =====================================================

 The numbering in the list below (to the right of the function characteristics) is referred
 to in print-outs of MO eigenvectors and Mulliken populations in the BAS representation
 (as contrasted to the SFO representation).

 Notes:
 1. The functions are characterized by a polynomial prefactor (powers of x,y,z and r) and
    an exponential decay factor alpha.
 2. Since the basis sets are specific for an atom TYPE, the individual functions occur on
    all atoms of that type.
 3. The word 'Core' in the left margin signals that it is a Core Function (CF) : not a
    degree of freedom in the valence set, but only used to ensure orthogonalization of
    the other valence basis functions on the frozen Core Orbitals.


 (power of) X  Y  Z  R     Alpha  on Atom
            ==========     =====     ==========

 H                                    1
                                  ---------------------------------------------------------------------------
            0  0  0  0     3.300      1
            0  0  0  0     2.000      2
            0  0  0  0     1.400      3
            0  0  0  0     1.000      4
            0  0  0  0     0.710      5
            1  0  0  0     2.000      6
            0  1  0  0     2.000      7
            0  0  1  0     2.000      8
            1  0  0  0     1.000      9
            0  1  0  0     1.000     10
            0  0  1  0     1.000     11
            2  0  0  0     2.500     12
            1  1  0  0     2.500     13
            1  0  1  0     2.500     14
            0  2  0  0     2.500     15
            0  1  1  0     2.500     16
            0  0  2  0     2.500     17
            2  0  0  0     1.500     18
            1  1  0  0     1.500     19
            1  0  1  0     1.500     20
            0  2  0  0     1.500     21
            0  1  1  0     1.500     22
            0  0  2  0     1.500     23
1
 ***************************************************************************************************



                                              ***********************
                                              *  T E C H N I C A L  *
                                              ***********************
  



 =============================================================
 P A R A L L E L I Z A T I O N  and  V E C T O R I Z A T I O N
 =============================================================
  
 Nr of parallel processes:                                1
 Maximum vector length in NumInt loops:                 128



 ===============
 I O  vs.  C P U  ***  (store numerical data on disk or recalculate)  ***
 ===============
  
 Basis functions:   recalculate when needed
 Fit functions:     recalculate when needed

 IO buffersize (Mb):                                     64.000000



 =====================
 S C F   U P D A T E S
 =====================
  
 Max. nr. of cycles:                               100
 Convergence criterion:                              0.0000000100
   secondary criterion:                              0.0000000100

 Mix parameter (when DIIS does not apply):           0.2000000000
 Special mix parameter for the first cycle:          1.0000000000


 DIIS (Direct Inversion in Iteration Space)
    Replace damping when SCF Error is below:         0.5000000000
    Apply anyway after SCF cycle:
                                                     5
    (Max.) nr. of expansion vectors:                10

    Upperbound on expansion coefficients:            5.0000000000
    (when exceeded, IterationSpace is re-built)
    2nd Upperbound on coefficients:                 25.0000000000
    (when exceeded, simple damping will be used)
 Automatic ElectronSmearing (in case of problematic SCF convergence) disabled



 =================
 P R E C I S I O N  ***  (General: NumInt, NeglectFunctionTails, ...)  ***
 =================
  

 NumInt:           Target precision:                10.0000000000
 -------           Initial precision:               10.0000000000
                   Min. precision (optimization):   10.0000000000

 Neglect Functions:          Basis functions:        0.1000000000E-11
 ------------------          Fit functions:          0.1000000000E-11



 ===========================
 L I N E A R   S C A L I N G
 ===========================
  

 Cut-off radii density fit:                        0.1000000000E-13
 Overlap cut-off criterion AO matrix elements:     0.1000000000E-11
 Cut-offs for Coulomb potential and fitted density:0.1000000000E-13
 Cut-off criterion for Coulomb multipole terms:    0.1000000000E-13
 Progressive Convergence parameter:                 0.000000000    
1
 ***************************************************************************************************



                                            ***************************
                                            *  C O M P U T A T I O N  *
                                            ***************************
  

 Number of elements of the density matrix on this node (used, total):       276       276



 ====================================================
 Numerical Integration : Voronoi Polyhedra (Te Velde)
 ====================================================
  
 General Accuracy Parameter :                         10.00

 Symmetry used in the points section:  ATOM  


 Summary of the Symmetry Unique Points:
 --------------------------------------
    Nr. of used Symmetry Operators                     1

    Points in the Atomic Spheres                      44
    Points in the Atomic Polyhedra                     0
    Points in the Outer Region                         0
    ----------------------------------------------------
    Total                                             44

    Sum of Weights                                 33854.777883

 Total nr. of points:         44
 Nr. of blocks:                1
 Block length:                44
 Nr. of dummy points:          0


 Test of Precision of the Numerical Integration Grid
 ===================================================

 Integral of the Total Core Density:                   0.00000000000000



 =====
 S C F
 =====
  

 CYCLE    1
 orbitals (Q,E):
 ---------------
 S :1...5            ( 1.00    -0.5000)  ( 0.00    -0.1102)  ( 0.00     0.2912)  ( 0.00     2.1458)
                     ( 0.00    15.1140)
 P :1...2            ( 0.00    -0.0467)  ( 0.00     1.6698)
 D :1...2            ( 0.00     0.4090)  ( 0.00     3.3827)

 CYCLE    2
 d-Pmat  mean:  0.40E-01
 imax=      4: -0.73E+00
 orbitals (Q,E):
 ---------------
 S :1...2            ( 1.00    -0.2213)  ( 0.00     0.0617)
 P :1...1            ( 0.00     0.1820)
 D :1...1            ( 0.00     0.6395)

 CYCLE    3
 d-Pmat  mean:  0.48E-02
 imax=      4:  0.66E-01
 orbitals (Q,E):
 ---------------
 S :1...2            ( 1.00    -0.2392)  ( 0.00     0.0523)
 P :1...1            ( 0.00     0.1713)
 D :1...1            ( 0.00     0.6290)

 CYCLE    4
 d-Pmat  mean:  0.47E-03
 imax=      4: -0.74E-02
 orbitals (Q,E):
 ---------------
 S :1...2            ( 1.00    -0.2386)  ( 0.00     0.0522)
 P :1...1            ( 0.00     0.1716)
 D :1...1            ( 0.00     0.6293)

 CYCLE    5
 d-Pmat  mean:  0.13E-04
 imax=      4:  0.20E-03
 orbitals (Q,E):
 ---------------
 S :1...2            ( 1.00    -0.2386)  ( 0.00     0.0522)
 P :1...1            ( 0.00     0.1716)
 D :1...1            ( 0.00     0.6293)

 CYCLE    6
 d-Pmat  mean:  0.14E-06
 imax=      4:  0.26E-05
 orbitals (Q,E):
 ---------------
 S :1...2            ( 1.00    -0.2386)  ( 0.00     0.0522)
 P :1...1            ( 0.00     0.1716)
 D :1...1            ( 0.00     0.6293)

 CYCLE    7
 d-Pmat  mean:  0.24E-08
 imax=      4:  0.39E-07
 orbitals (Q,E):
 ---------------
 S :1...2            ( 1.00    -0.2386)  ( 0.00     0.0522)
 P :1...1            ( 0.00     0.1716)
 D :1...1            ( 0.00     0.6293)

 SCF CONVERGED

 CYCLE    8
1
 ***************************************************************************************************



                                                *******************
                                                *  R E S U L T S  *
                                                *******************
  
 *** Setting up for NEW gradients in focky
 *** Using FIT density in focky

 Scaled ZORA Orbital Energies, per Irrep and Spin:
 =================================================
                        Occup              E (au)              E (eV)       Diff (eV) with prev. cycle
                        -----      --------------------        ------       --------------------------
 S
               1        1.000     -0.23860414448782E+00        -6.493              -2.15E-10
               2        0.000      0.52240780773353E-01         1.422
               3        0.000      0.50128711414801E+00        13.641
               4        0.000      0.23892611828176E+01        65.015
               5        0.000      0.15295018626306E+02       416.199
 P
               1        0.000      0.17156247999749E+00         4.668
               2        0.000      0.19364620405874E+01        52.694
 D
               1        0.000      0.62928666110103E+00        17.124
               2        0.000      0.36544214463356E+01        99.442


 Partially Occupied:
               1 S                -0.23860414448782E+00
  
 LUMO :        2 S                 0.52240780773353E-01
  


 Orbital Energies, all Irreps
 ========================================

 Irrep        no.  (spin)   Occup              E (au)                E (eV)
 ---------------------------------------------------------------------------
 S             1             1.00       -0.23860414448782E+00        -6.4927
 S             2             0.00        0.52240780773353E-01         1.4215
 P             1             0.00        0.17156247999749E+00         4.6685
 S             3             0.00        0.50128711414801E+00        13.6407
 D             1             0.00        0.62928666110103E+00        17.1238
 P             2             0.00        0.19364620405874E+01        52.6938
 S             4             0.00        0.23892611828176E+01        65.0151
 D             2             0.00        0.36544214463356E+01        99.4419
 S             5             0.00        0.15295018626306E+02       416.1986


 All Electron Calculation, thus no Orbital Energies of the Core Orbitals are calculated



 =======================================
 M U L L I K E N   P O P U L A T I O N S
 =======================================
  
 The survey below gives for each atom:
 a) the total charge (Z minus electrons)
 b) the net spin polarization (nr of electrons spin-A minus spin-B)
 c) for each spin the atomic electron valence density (integrated) per L-value.

 Atom              Charge    Spin density          S         P         D         F
 ----              ------    ------------       ------    ------    ------    ------
 1 H               0.0000                       1.0000    0.0000    0.0000    0.0000

 Populations of individual BAS functions
 ----------------------------------------
 1 H           -0.0037  0.0405  0.0399  0.5670  0.3563  0.0000  0.0000  0.0000  0.0000  0.0000
                0.0000  0.0000  0.0000  0.0000  0.0000  0.0000  0.0000  0.0000  0.0000  0.0000
                0.0000  0.0000  0.0000

 Gross Charges per Atom (Z minus electrons)
 ==========================================
             0.0000
 Net Total:  0.00000000


 Atom-Atom Population Matrix (off-diagonal elements not doubled)
 ===============================================================

     1 :     1.0000



 =============
 Dipole Moment  ***  (Debye)  ***
 =============
  
 Vector   :         0.00000000      0.00000000      0.00000000
 Magnitude:         0.00000000

 This molecular dipole moment is calculated with analytic integration



 =========================================
 Quadrupole Moment (Buckingham convention)  ***  (a.u.)  ***
 =========================================
  
      quad-xx        quad-xy        quad-xz        quad-yy        quad-yz        quad-zz
      0.00000000     0.00000000     0.00000000     0.00000000     0.00000000     0.00000000

 This molecular quadrupole moment is calculated with analytic integration



 ===============================================================================
 Electrostatic potential at the Nuclei due to valence electrons and other nuclei
 ===============================================================================
  
         Atom                  Potential
         ----                  ---------
     1)   H                   0.94463948
 
 
 ========================
 No memory problems found
 ========================
 
 Maximum number of active allocate calls:         378
 
 *******************************************************************************

                             A D F   E X I T
 NORMAL TERMINATION



 =================
 Timing Statistics
 =================
  
 Total Used :                     CPU=        0.28      System=        0.13     Elapsed=        1.28

 Calls  Section                     ( Mean, Percentage )
 ---------------------------------------------------------------------------------------------------
     3  ><      ................      0.00    1.17             0.00    0.03             0.03    6.45
     1  INIT    ................      0.02    5.86             0.01    4.57             0.11    8.75
     1  GEOMET  ................      0.01    3.80             0.05   40.97             0.18   13.83
     1  INPUTA  ................      0.00    0.14             0.00    2.62             0.00    0.38
     1  MAINSY  ................      0.00    1.32             0.01    8.55             0.05    4.00
     1  SYMFIT  ................      0.00    0.07             0.00    0.32             0.00    0.05
     1  CORORT  ................      0.00    0.00             0.00    0.93             0.01    0.57
     1  SYMORB  ................      0.00    0.03             0.00    1.03             0.00    0.11
     1  FITINT  ................      0.01    4.24             0.00    1.97             0.02    1.58
     1  CLSMAT  ................      0.00    0.12             0.00    0.65             0.03    2.49
     1  ORTHON  ................      0.00    0.00             0.00    2.85             0.01    0.75
     1  GENPT   ................      0.01    3.21             0.00    3.61             0.05    3.94
     1  PTBAS   ................      0.00    0.90             0.00    1.47             0.01    0.97
     8  FOCKY   ................      0.02   47.95             0.00   17.73             0.03   18.10
     8  FOCKTR  ................      0.00    1.39             0.00    0.69             0.00    0.37
     8  FOCKNM  ................      0.00    0.15             0.00    0.05             0.00    0.04
     8  SDIIS   ................      0.00    2.64             0.00    2.01             0.02   10.78
     8  EMERGE  ................      0.00   11.39             0.00    5.19             0.03   21.39
     1  COREPS  ................      0.01    2.10             0.00    0.43             0.01    0.72
     1  POPAN   ................      0.00    1.74             0.00    0.00             0.01    0.81
     1  DEBYE   ................      0.00    0.30             0.00    0.55             0.01    0.52
     1  QMPOT   ................      0.00    1.01             0.00    1.50             0.00    0.37
     1  EXIT PROCEDURE .........      0.03   10.45             0.00    2.29             0.04    3.06


 Currently Open Files (EXIT00)
 ====================

 Unit    Access Format  Status   Type       Ident (file)
 -------------------------------------------------------
   3      SEQ    FORM   TRANSP  NORMAL      LOGFILE
                                          ( logfile )


 Buffered I/O statistics
 =======================
 Memory available:                     67108864
 Number of records fitting in memory:     16131
 Input :   1.3% of                         3604  *4k bytes
 Output:  10.6% of                         1855  *4k bytes
 Records from serial files evicted:           0
                    others evicted:           0
 Hash table lookups:      14887 with          0 conflicts (  0.00%)

 ***************************************************************************************************
 (LOGFILE)
 <Jan01-2013> <00:00:01>  DIRAC 2013.01  RunTime: Jan01-2013 00:00:01  Nodes: 1  Procs: 1
 <Jan01-2013> <00:00:01>  NORMAL TERMINATION
 <Jan01-2013> <00:00:01>  END
 <Jan01-2013> <00:00:01>  ADF 2013.01  RunTime: Jan01-2013 00:00:01  Nodes: 1  Procs: 1
 <Jan01-2013> <00:00:01>  Hydrogen (QZ, all electron, 5S 2P 2D)
 <Jan01-2013> <00:00:01>  RunType   : CREATE
 <Jan01-2013> <00:00:01>  Net Charge: 0 (Nuclei minus Electrons)
 <Jan01-2013> <00:00:02>  Symmetry  : ATOM
  Coordinates
    Atom         X           Y           Z   (Angstrom)
    1.H         0.000000    0.000000    0.000000
 <Jan01-2013> <00:00:02>  >>>> CORORT
 <Jan01-2013> <00:00:02>  >>>> FITINT
 <Jan01-2013> <00:00:02>  >>>> CLSMAT
 <Jan01-2013> <00:00:02>  >>>> ORTHON
 <Jan01-2013> <00:00:02>  >>>> GENPT
 <Jan01-2013> <00:00:02>  Acc.Num.Int.=  10.000
 <Jan01-2013> <00:00:02>  Block Length=  44
 <Jan01-2013> <00:00:02>  >>>> PTBAS
 <Jan01-2013> <00:00:02>  >>>> CYCLE
 <Jan01-2013> <00:00:02>    1
 <Jan01-2013> <00:00:02>    2  ErrMat   0.03803841  MaxEl  0.03078708
 <Jan01-2013> <00:00:02>    3  ErrMat   0.00916622  MaxEl -0.00901560
 <Jan01-2013> <00:00:02>    4  ErrMat   0.00035667  MaxEl  0.00031421
 <Jan01-2013> <00:00:02>    5  ErrMat   0.00000962  MaxEl -0.00000892
 <Jan01-2013> <00:00:02>    6  ErrMat   0.00000013  MaxEl  0.00000008
 <Jan01-2013> <00:00:02>    7  ErrMat   0.00000000  MaxEl  0.00000000
 <Jan01-2013> <00:00:02>  SCF converged
 <Jan01-2013> <00:00:02>    8  ErrMat   0.00000000  MaxEl  0.00000000
 <Jan01-2013> <00:00:02>   Solutions with partially occupied orbitals may not be
 <Jan01-2013> <00:00:02>   lowest in energy. You might consider lowering the
 <Jan01-2013> <00:00:02>   symmetry in the input and explicitly specifying integer
 <Jan01-2013> <00:00:02>   occupations. In that case always check that you obtain
 <Jan01-2013> <00:00:02>   an aufbau solution.
 <Jan01-2013> <00:00:02>  >>>> POPAN
 <Jan01-2013> <00:00:02>  >>>> DEBYE
 <Jan01-2013> <00:00:02>  NORMAL TERMINATION
 <Jan01-2013> <00:00:02>  END

 *******************************************************************************
 *                                                                             *
 *  -------------------------------------                                      *
 *   Amsterdam Density Functional  (ADF)         2013.01   April 2, 2013       *
 *  -------------------------------------                                      *
 *                                               Build 201304112106            *
 *                                                                             *
 *                                                                             *
 *                            =====================                            *
 *                            |                   |                            *
 *                            |     D I R A C     |                            *
 *                            |                   |                            *
 *                            =====================                            *
 *                                                                             *
 *                                                                             *
 *   Online information and documentation:  http://www.scm.com                 *
 *   E-mail:  support@scm.com   info@scm.com                                   *
 *                                                                             *
 *   Scientific publications using ADF results must be properly referenced     *
 *   See the User Manuals (or the web site) for recommended citations          *
 *   The terms and conditions of the End User License Agreement apply to       *
 *   the use of ADF, http://www.scm.com/Sales/LicAgreement.html                *
 *                                                                             *
 ****************************  x86_64_linux_intel  *****************************
 
 Licensed to: Prof. Cacier Hadad / University of Antioquia / Medellin / COLOMBIA
 SCM User ID: u15319
  
 DIRAC 2013.01  RunTime: Jan01-2013 00:00:03  Nodes: 1  Procs: 1

 Temporary files are created in /tmp/kid_0.8ydQ60

1
 OXYGEN ATOM all electron RELATIVISTIC, Point Nuc, A and c fr
 N J RN H ZN XION ANUC CLIGHT
 5000    4100.00000000197.36710137  8.00000000  0.00000000   15.994914  0.1370360E+03
  PH   PHI     EPS        DEL        DELRVR
  0.30  0.30     2500.00  0.00001000  0.00001000
 IDIRC  NC1  NDEBU NPRIN  IPUN IRCOR IWCOR
   1   300     0     0     0     0     0
   XALPHA      XLATTER      RNUC
  0.70000000  0.00000000  0.00000000 Point Charge
   XN   XL   XJ      XE          XZ      XDELL
  1.0  0.0  0.5      -5.000       2.000     0.00000
  2.0  0.0  0.5      -1.000       2.000     0.00000
  2.0  1.0  0.5      -1.000       2.000     0.00000
  2.0  1.0  1.5      -1.000       2.000     0.00000
 ICORP=  0  NPCL=  0  DEMP=0.00  PEPS=0.000000
 R(1)=  0.1000000E-08 D=  0.1005080E+01 RNUC=  0.0000000E+00
 converged at cycle   28  DENSITY AVERAGING    0.2400
  MAXIMUM ERROR IN R.V(R) IS   0.81125670E-05
 Q,EY,EV,EZ,ESUM,ETOT,RHO  0.800000E+01 -0.101247E+02 -0.114961E+03 -0.177573E+03 -0.405053E+02 -0.743427E+02  0.414766E-14


 DIRAC CALCULATION
1                    OXYGEN ATOM all electron RELATIVISTIC, Point Nuc, A and c from libtc


 EXCHANGE COEFFICIENT=  0.7000000           TAIL CORRECTION=  0.           NUCLEAR RADIUS=  0.000E+00
0                       ORBITAL    N    L    J     ELECTRONS     EIGENVALUE                DELTA OF EIGENV.

                          1S1/2  1.0  0.0  0.5     2.000       -0.1880014E+02                 0.7264359E-06
                          2S1/2  2.0  0.0  0.5     2.000       -0.8412236E+00                 0.5932752E-05
                          2P1/2  2.0  1.0  0.5     2.000       -0.3063203E+00                 0.5998471E-05
                          2P3/2  2.0  1.0  1.5     2.000       -0.3049609E+00                 0.5986971E-05


                                        NUCLEAR CHARGE=    8.000000
                            INTEGRAL OF CHARGE DENSITY=    8.000000
                           SUM OF THE ORBITAL ENERGIES=    -40.5053
                                          TOTAL ENERGY=    -74.3427
                                        KINETIC ENERGY=     74.4552
                             NUCLEAR ATTRACTION ENERGY=   -177.5730
                             ELECTRON REPULSION ENERGY=     36.3686
                                       EXCHANGE ENERGY=     -7.5935

 *******************************************************************************

                             D I R A C   E X I T
 NORMAL TERMINATION



 =================
 Timing Statistics
 =================
  
 Total Used :                     CPU=        0.15      System=        0.05     Elapsed=        0.37

 Calls  Section                     ( Mean, Percentage )
 ---------------------------------------------------------------------------------------------------
     2  ><      ................      0.00    0.00             0.00    0.03             0.00    0.01
     1  EXIT PROCEDURE .........      0.15  100.00             0.05   99.97             0.37   99.99


 Currently Open Files (EXIT00)
 ====================

 Unit    Access Format  Status   Type       Ident (file)
 -------------------------------------------------------
   3      SEQ    FORM   TRANSP  NORMAL      LOGFILE
                                          ( logfile )


 Buffered I/O statistics
 =======================
 Memory available:                     67108864
 Number of records fitting in memory:     16131
 Input : 100.0% of                            0  *4k bytes
 Output: 100.0% of                            0  *4k bytes
 Records from serial files evicted:           0
                    others evicted:           0
 Hash table lookups:          0 with          0 conflicts (100.00%)
(INPUT FILE)
Create O   file=/home/andyzapa/adf2013.01/atomicdata/ZORA/QZ4P/O
 XC
 GGA PBE
End
relativistic ZORA
Corepotentials t12.rel
End Input

 *******************************************************************************
 *                                                                             *
 *  -------------------------------------                                      *
 *   Amsterdam Density Functional  (ADF)         2013.01   April 2, 2013       *
 *  -------------------------------------                                      *
 *                                               Build 201304112215            *
 *                                                                             *
 *                                                                             *
 *                              =================                              *
 *                              |               |                              *
 *                              |     A D F     |                              *
 *                              |               |                              *
 *                              =================                              *
 *                                                                             *
 *                                                                             *
 *   Online information and documentation:  http://www.scm.com                 *
 *   E-mail:  support@scm.com   info@scm.com                                   *
 *                                                                             *
 *   Scientific publications using ADF results must be properly referenced     *
 *   See the User Manuals (or the web site) for recommended citations          *
 *   The terms and conditions of the End User License Agreement apply to       *
 *   the use of ADF, http://www.scm.com/Sales/LicAgreement.html                *
 *                                                                             *
 ********************  x86_64_linux_intel / platform_mpi  **********************
 
 Licensed to: Prof. Cacier Hadad / University of Antioquia / Medellin / COLOMBIA
 SCM User ID: u15319
  
 ADF 2013.01  RunTime: Jan01-2013 00:00:03  Nodes: 1  Procs: 1

 Temporary files are created in /tmp/kid_0.WkmdkF

 Oxygen (QZ, all electron, 8S 4P 2D 2F)



 ===========================
 A T T A C H E D   F I L E S
 ===========================
  
 CREATE - Data File:    /home/andyzapa/adf2013.01/atomicdata/ZORA/QZ4P/O
                        Oxygen (QZ, all electron, 8S 4P 2D 2F)
 Core Potentials:
         file : t12.rel



 ===============================
 M O D E L   P A R A M E T E R S
 ===============================
  
 DENSITY FUNCTIONAL POTENTIAL (scf)
    LDA:                               PW92                                    == Not Default ==
    Gradient Corrections:              PBEc PBEx                               == Not Default ==

 SPIN  (restricted / unrestr.)
    Molecule:                          Restricted                               

 OTHER ASPECTS
    Relativistic Corrections:          scalar (ZORA,SAPA)                      == Not Default ==

    Nuclear Charge Density Model:      Point Charge Nuclei                                                                                                                                                                                     
    Core Treatment:                    Frozen Orbital(s)                        

    Hyperfine or Zeeman Interaction:   ---                                      



 =====================================
 S Y M M E T R Y ,   E L E C T R O N S
 =====================================
  
 Symmetry: ATOM

 Irreducible Representations, including subspecies
 -------------------------------------------------
 S
 P:x  P:y  P:z
 D:z2  D:x2-y2  D:xy  D:xz  D:yz
 F:z3  F:z  F:xyz  F:z2x  F:z2y  F:x  F:y


 Configuration of Valence Electrons
 ==================================

          Occupation Numbers
          -------------------------------------------------
 S        2*2
 P        4
 D        0
 F        0
          -------------------------------------------------

 Total:   8

 Net Charge: 0 (Nuclei minus Electrons)

 Preset values for MO occupations will be applied through SCF cycle no. 1000000
 Thereafter, the program will assign electrons to MOs that are spatially
 similar to the occupied MOs in a "reference" cycle ("KeepOrbitals").
 The reference cycle is always the PREVIOUS cycle: it will evolve with
 the SCF procedure.



 ================================
 (Slater-type)  F U N C T I O N S  ***  (Basis and Fit)  ***
 ================================
  

 Atom Type    1  (O)
 ==============

 Valence Basis Sets:  16
 -----------------------
   1 S   14.800000
   1 S    8.750000
   1 S    6.650000
   2 S    7.100000
   2 S    3.200000
   2 S    2.050000
   2 S    1.500000
   2 S    0.750000
   2 P    5.700000
   2 P    3.050000
   2 P    1.650000
   2 P    1.000000
   3 D    2.500000
   3 D    1.500000
   4 F    4.000000
   4 F    2.000000

 Charge Fitting Sets (for the computation of the Coulomb Potential):  37
 -----------------------------------------------------------------------
   1 S   29.600000
   1 S   22.760000
   1 S   17.500000
   1 S   11.580000
   2 S   14.160000
   2 S   10.290000
   2 S    7.480000
   2 S    5.430000
   3 S    5.780000
   3 S    4.410000
   3 S    3.370000
   3 S    2.570000
   3 S    1.960000
   3 S    1.500000
   2 P   14.450000
   2 P    9.770000
   2 P    6.610000
   3 P    6.560000
   3 P    4.710000
   3 P    3.390000
   3 P    2.430000
   3 P    1.750000
   3 D   11.400000
   3 D    7.640000
   3 D    5.120000
   4 D    4.550000
   4 D    3.200000
   4 D    2.250000
   4 F   12.750000
   4 F    8.120000
   4 F    5.170000
   5 F    4.130000
   5 F    2.750000
   5 G    9.700000
   5 G    6.560000
   5 G    4.440000
   5 G    3.000000


 BAS: List of all Elementary Cartesian Basis Functions
 =====================================================

 The numbering in the list below (to the right of the function characteristics) is referred
 to in print-outs of MO eigenvectors and Mulliken populations in the BAS representation
 (as contrasted to the SFO representation).

 Notes:
 1. The functions are characterized by a polynomial prefactor (powers of x,y,z and r) and
    an exponential decay factor alpha.
 2. Since the basis sets are specific for an atom TYPE, the individual functions occur on
    all atoms of that type.
 3. The word 'Core' in the left margin signals that it is a Core Function (CF) : not a
    degree of freedom in the valence set, but only used to ensure orthogonalization of
    the other valence basis functions on the frozen Core Orbitals.


 (power of) X  Y  Z  R     Alpha  on Atom
            ==========     =====     ==========

 O                                    1
                                  ---------------------------------------------------------------------------
            0  0  0  0    14.800      1
            0  0  0  0     8.750      2
            0  0  0  0     6.650      3
            0  0  0  1     7.100      4
            0  0  0  1     3.200      5
            0  0  0  1     2.050      6
            0  0  0  1     1.500      7
            0  0  0  1     0.750      8
            1  0  0  0     5.700      9
            0  1  0  0     5.700     10
            0  0  1  0     5.700     11
            1  0  0  0     3.050     12
            0  1  0  0     3.050     13
            0  0  1  0     3.050     14
            1  0  0  0     1.650     15
            0  1  0  0     1.650     16
            0  0  1  0     1.650     17
            1  0  0  0     1.000     18
            0  1  0  0     1.000     19
            0  0  1  0     1.000     20
            2  0  0  0     2.500     21
            1  1  0  0     2.500     22
            1  0  1  0     2.500     23
            0  2  0  0     2.500     24
            0  1  1  0     2.500     25
            0  0  2  0     2.500     26
            2  0  0  0     1.500     27
            1  1  0  0     1.500     28
            1  0  1  0     1.500     29
            0  2  0  0     1.500     30
            0  1  1  0     1.500     31
            0  0  2  0     1.500     32
            3  0  0  0     4.000     33
            2  1  0  0     4.000     34
            2  0  1  0     4.000     35
            1  2  0  0     4.000     36
            1  1  1  0     4.000     37
            1  0  2  0     4.000     38
            0  3  0  0     4.000     39
            0  2  1  0     4.000     40
            0  1  2  0     4.000     41
            0  0  3  0     4.000     42
            3  0  0  0     2.000     43
            2  1  0  0     2.000     44
            2  0  1  0     2.000     45
            1  2  0  0     2.000     46
            1  1  1  0     2.000     47
            1  0  2  0     2.000     48
            0  3  0  0     2.000     49
            0  2  1  0     2.000     50
            0  1  2  0     2.000     51
            0  0  3  0     2.000     52

 Total number of charge fitting functions (nprimf)       184
 Total number of Cartesian basis functions (naos)         52
 Total number of Cartesian core functions  (ncos)          0



 BAS: List of all Elementary Cartesian Basis Functions
 =====================================================

 The numbering in the list below (to the right of the function characteristics) is referred
 to in print-outs of MO eigenvectors and Mulliken populations in the BAS representation
 (as contrasted to the SFO representation).

 Notes:
 1. The functions are characterized by a polynomial prefactor (powers of x,y,z and r) and
    an exponential decay factor alpha.
 2. Since the basis sets are specific for an atom TYPE, the individual functions occur on
    all atoms of that type.
 3. The word 'Core' in the left margin signals that it is a Core Function (CF) : not a
    degree of freedom in the valence set, but only used to ensure orthogonalization of
    the other valence basis functions on the frozen Core Orbitals.


 (power of) X  Y  Z  R     Alpha  on Atom
            ==========     =====     ==========

 O                                    1
                                  ---------------------------------------------------------------------------
            0  0  0  0    14.800      1
            0  0  0  0     8.750      2
            0  0  0  0     6.650      3
            0  0  0  1     7.100      4
            0  0  0  1     3.200      5
            0  0  0  1     2.050      6
            0  0  0  1     1.500      7
            0  0  0  1     0.750      8
            1  0  0  0     5.700      9
            0  1  0  0     5.700     10
            0  0  1  0     5.700     11
            1  0  0  0     3.050     12
            0  1  0  0     3.050     13
            0  0  1  0     3.050     14
            1  0  0  0     1.650     15
            0  1  0  0     1.650     16
            0  0  1  0     1.650     17
            1  0  0  0     1.000     18
            0  1  0  0     1.000     19
            0  0  1  0     1.000     20
            2  0  0  0     2.500     21
            1  1  0  0     2.500     22
            1  0  1  0     2.500     23
            0  2  0  0     2.500     24
            0  1  1  0     2.500     25
            0  0  2  0     2.500     26
            2  0  0  0     1.500     27
            1  1  0  0     1.500     28
            1  0  1  0     1.500     29
            0  2  0  0     1.500     30
            0  1  1  0     1.500     31
            0  0  2  0     1.500     32
            3  0  0  0     4.000     33
            2  1  0  0     4.000     34
            2  0  1  0     4.000     35
            1  2  0  0     4.000     36
            1  1  1  0     4.000     37
            1  0  2  0     4.000     38
            0  3  0  0     4.000     39
            0  2  1  0     4.000     40
            0  1  2  0     4.000     41
            0  0  3  0     4.000     42
            3  0  0  0     2.000     43
            2  1  0  0     2.000     44
            2  0  1  0     2.000     45
            1  2  0  0     2.000     46
            1  1  1  0     2.000     47
            1  0  2  0     2.000     48
            0  3  0  0     2.000     49
            0  2  1  0     2.000     50
            0  1  2  0     2.000     51
            0  0  3  0     2.000     52
1
 ***************************************************************************************************



                                              ***********************
                                              *  T E C H N I C A L  *
                                              ***********************
  



 =============================================================
 P A R A L L E L I Z A T I O N  and  V E C T O R I Z A T I O N
 =============================================================
  
 Nr of parallel processes:                                1
 Maximum vector length in NumInt loops:                 128



 ===============
 I O  vs.  C P U  ***  (store numerical data on disk or recalculate)  ***
 ===============
  
 Basis functions:   recalculate when needed
 Fit functions:     recalculate when needed

 IO buffersize (Mb):                                     64.000000



 =====================
 S C F   U P D A T E S
 =====================
  
 Max. nr. of cycles:                               100
 Convergence criterion:                              0.0000000100
   secondary criterion:                              0.0000000100

 Mix parameter (when DIIS does not apply):           0.2000000000
 Special mix parameter for the first cycle:          1.0000000000


 DIIS (Direct Inversion in Iteration Space)
    Replace damping when SCF Error is below:         0.5000000000
    Apply anyway after SCF cycle:
                                                     5
    (Max.) nr. of expansion vectors:                10

    Upperbound on expansion coefficients:            5.0000000000
    (when exceeded, IterationSpace is re-built)
    2nd Upperbound on coefficients:                 25.0000000000
    (when exceeded, simple damping will be used)
 Automatic ElectronSmearing (in case of problematic SCF convergence) disabled



 =================
 P R E C I S I O N  ***  (General: NumInt, NeglectFunctionTails, ...)  ***
 =================
  

 NumInt:           Target precision:                10.0000000000
 -------           Initial precision:               10.0000000000
                   Min. precision (optimization):   10.0000000000

 Neglect Functions:          Basis functions:        0.1000000000E-11
 ------------------          Fit functions:          0.1000000000E-11



 ===========================
 L I N E A R   S C A L I N G
 ===========================
  

 Cut-off radii density fit:                        0.1000000000E-13
 Overlap cut-off criterion AO matrix elements:     0.1000000000E-11
 Cut-offs for Coulomb potential and fitted density:0.1000000000E-13
 Cut-off criterion for Coulomb multipole terms:    0.1000000000E-13
 Progressive Convergence parameter:                 0.000000000    
1
 ***************************************************************************************************



                                            ***************************
                                            *  C O M P U T A T I O N  *
                                            ***************************
  

 Number of elements of the density matrix on this node (used, total):      1378      1378



 ====================================================
 Numerical Integration : Voronoi Polyhedra (Te Velde)
 ====================================================
  
 General Accuracy Parameter :                         10.00

 Symmetry used in the points section:  ATOM  


 Summary of the Symmetry Unique Points:
 --------------------------------------
    Nr. of used Symmetry Operators                     1

    Points in the Atomic Spheres                      61
    Points in the Atomic Polyhedra                     0
    Points in the Outer Region                         0
    ----------------------------------------------------
    Total                                             61

    Sum of Weights                                 58501.056183

 Total nr. of points:         61
 Nr. of blocks:                1
 Block length:                61
 Nr. of dummy points:          0


 Test of Precision of the Numerical Integration Grid
 ===================================================

 Integral of the Total Core Density:                   0.00000000000000



 =====
 S C F
 =====
  

 CYCLE    1
 orbitals (Q,E):
 ---------------
 S :1...8            ( 2.00   -32.0159)  ( 2.00    -8.0044)  ( 0.00    -3.5574)  ( 0.00    -1.9901)
                     ( 0.00    -1.2515)  ( 0.00     4.1058)  ( 0.00    41.2206)  ( 0.00   308.5800)
 P :1...4            ( 4.00    -7.9758)  ( 0.00    -3.5116)  ( 0.00    -1.8856)  ( 0.00     3.1956)
 D :1...2            ( 0.00    -3.5495)  ( 0.00    -1.9917)
 F :1...2            ( 0.00    -1.9999)  ( 0.00     1.0590)

 CYCLE    2
 d-Pmat  mean:  0.11E+01
 imax=      3: -0.25E+02
 orbitals (Q,E):
 ---------------
 S :1...3            ( 2.00   -14.5566)  ( 2.00    -0.0356)  ( 0.00     0.1667)
 P :1...2            ( 4.00     0.2048)  ( 0.00     0.7903)
 D :1...1            ( 0.00     0.7381)
 F :1...1            ( 0.00     1.6042)

 CYCLE    3
 d-Pmat  mean:  0.30E+00
 imax=     20: -0.24E+01
 orbitals (Q,E):
 ---------------
 S :1...3            ( 2.00   -16.2388)  ( 2.00    -0.4301)  ( 0.00     0.0620)
 P :1...2            ( 4.00     0.0108)  ( 0.00     0.4058)
 D :1...1            ( 0.00     0.5775)
 F :1...1            ( 0.00     1.4155)

 CYCLE    4
 d-Pmat  mean:  0.10E+00
 imax=     20: -0.11E+01
 orbitals (Q,E):
 ---------------
 S :1...3            ( 2.00   -17.2725)  ( 2.00    -0.6986)  ( 0.00     0.0275)
 P :1...2            ( 4.00    -0.1717)  ( 0.00     0.2612)
 D :1...1            ( 0.00     0.5085)
 F :1...1            ( 0.00     1.3362)

 CYCLE    5
 d-Pmat  mean:  0.56E-01
 imax=      3:  0.70E+00
 orbitals (Q,E):
 ---------------
 S :1...3            ( 2.00   -18.8741)  ( 2.00    -0.8425)  ( 0.00     0.0251)
 P :1...2            ( 4.00    -0.2957)  ( 0.00     0.2201)
 D :1...1            ( 0.00     0.5505)
 F :1...1            ( 0.00     1.3859)

 CYCLE    6
 d-Pmat  mean:  0.57E-02
 imax=      2:  0.75E-01
 orbitals (Q,E):
 ---------------
 S :1...3            ( 2.00   -18.9263)  ( 2.00    -0.8875)  ( 0.00     0.0144)
 P :1...2            ( 4.00    -0.3386)  ( 0.00     0.1983)
 D :1...1            ( 0.00     0.5241)
 F :1...1            ( 0.00     1.3583)

 CYCLE    7
 d-Pmat  mean:  0.80E-03
 imax=      6: -0.45E-02
 orbitals (Q,E):
 ---------------
 S :1...3            ( 2.00   -18.9106)  ( 2.00    -0.8796)  ( 0.00     0.0160)
 P :1...2            ( 4.00    -0.3310)  ( 0.00     0.2007)
 D :1...1            ( 0.00     0.5265)
 F :1...1            ( 0.00     1.3609)

 CYCLE    8
 d-Pmat  mean:  0.91E-04
 imax=      6:  0.77E-03
 orbitals (Q,E):
 ---------------
 S :1...3            ( 2.00   -18.9122)  ( 2.00    -0.8804)  ( 0.00     0.0159)
 P :1...2            ( 4.00    -0.3317)  ( 0.00     0.2005)
 D :1...1            ( 0.00     0.5262)
 F :1...1            ( 0.00     1.3606)

 CYCLE    9
 d-Pmat  mean:  0.72E-06
 imax=      2: -0.12E-04
 orbitals (Q,E):
 ---------------
 S :1...3            ( 2.00   -18.9122)  ( 2.00    -0.8804)  ( 0.00     0.0159)
 P :1...2            ( 4.00    -0.3317)  ( 0.00     0.2005)
 D :1...1            ( 0.00     0.5262)
 F :1...1            ( 0.00     1.3606)

 CYCLE   10
 d-Pmat  mean:  0.12E-07
 imax=      6: -0.16E-06
 orbitals (Q,E):
 ---------------
 S :1...3            ( 2.00   -18.9122)  ( 2.00    -0.8804)  ( 0.00     0.0159)
 P :1...2            ( 4.00    -0.3317)  ( 0.00     0.2005)
 D :1...1            ( 0.00     0.5262)
 F :1...1            ( 0.00     1.3606)

 CYCLE   11
 d-Pmat  mean:  0.73E-10
 imax=      3: -0.54E-09
 orbitals (Q,E):
 ---------------
 S :1...3            ( 2.00   -18.9122)  ( 2.00    -0.8804)  ( 0.00     0.0159)
 P :1...2            ( 4.00    -0.3317)  ( 0.00     0.2005)
 D :1...1            ( 0.00     0.5262)
 F :1...1            ( 0.00     1.3606)

 SCF CONVERGED

 CYCLE   12
1
 ***************************************************************************************************



                                                *******************
                                                *  R E S U L T S  *
                                                *******************
  
 *** Setting up for NEW gradients in focky
 *** Using FIT density in focky

 Scaled ZORA Orbital Energies, per Irrep and Spin:
 =================================================
                        Occup              E (au)              E (eV)       Diff (eV) with prev. cycle
                        -----      --------------------        ------       --------------------------
 S
               1        2.000     -0.18912163588835E+02      -514.626               1.11E-08
               2        2.000     -0.88042536030047E+00       -23.958               1.12E-08
               3        0.000      0.15917242512281E-01         0.433
               4        0.000      0.47157190005756E+00        12.832
               5        0.000      0.25092163545059E+01        68.279
               6        0.000      0.11901959076774E+02       323.869
               7        0.000      0.52347890774129E+02      1424.459
               8        0.000      0.32159312651538E+03      8750.994
 P
               1        4.000     -0.33172720137124E+00        -9.027               1.10E-08
               2        0.000      0.20052917651640E+00         5.457
               3        0.000      0.16594440943803E+01        45.156
               4        0.000      0.12142335979629E+02       330.410
 D
               1        0.000      0.52623159771480E+00        14.319
               2        0.000      0.24055384909881E+01        65.458
 F
               1        0.000      0.13606224428047E+01        37.024
               2        0.000      0.70188296926363E+01       190.992


 Partially Occupied:
               1 P                -0.33172720137124E+00
  
 HOMO :        2 S                -0.88042536030047E+00
 LUMO :        3 S                 0.15917242512281E-01
  


 Orbital Energies, all Irreps
 ========================================

 Irrep        no.  (spin)   Occup              E (au)                E (eV)
 ---------------------------------------------------------------------------
 S             1             2.00       -0.18912163588835E+02      -514.6262
 S             2             2.00       -0.88042536030047E+00       -23.9576
 P             1             4.00       -0.33172720137124E+00        -9.0268
 S             3             0.00        0.15917242512281E-01         0.4331
 P             2             0.00        0.20052917651640E+00         5.4567
 S             4             0.00        0.47157190005756E+00        12.8321
 D             1             0.00        0.52623159771480E+00        14.3195
 F             1             0.00        0.13606224428047E+01        37.0244
 P             3             0.00        0.16594440943803E+01        45.1558
 D             2             0.00        0.24055384909881E+01        65.4580
 S             5             0.00        0.25092163545059E+01        68.2793
 F             2             0.00        0.70188296926363E+01       190.9921
 S             6             0.00        0.11901959076774E+02       323.8688
 P             4             0.00        0.12142335979629E+02       330.4098
 S             7             0.00        0.52347890774129E+02      1424.4586
 S             8             0.00        0.32159312651538E+03      8750.9942


 All Electron Calculation, thus no Orbital Energies of the Core Orbitals are calculated



 =======================================
 M U L L I K E N   P O P U L A T I O N S
 =======================================
  
 The survey below gives for each atom:
 a) the total charge (Z minus electrons)
 b) the net spin polarization (nr of electrons spin-A minus spin-B)
 c) for each spin the atomic electron valence density (integrated) per L-value.

 Atom              Charge    Spin density          S         P         D         F
 ----              ------    ------------       ------    ------    ------    ------
 1 O               0.0000                       4.0000    4.0000    0.0000    0.0000

 Populations of individual BAS functions
 ----------------------------------------
 1 O            0.0407  0.7707  1.2791 -0.1485  0.7639  1.0393  0.2537  0.0009  0.0450  0.0450
                0.0450  0.4807  0.4807  0.4807  0.6422  0.6422  0.6422  0.1654  0.1654  0.1654
                0.0000  0.0000  0.0000  0.0000  0.0000  0.0000  0.0000  0.0000  0.0000  0.0000
                0.0000  0.0000  0.0000  0.0000  0.0000  0.0000  0.0000  0.0000  0.0000  0.0000
                0.0000  0.0000  0.0000  0.0000  0.0000  0.0000  0.0000  0.0000  0.0000  0.0000
                0.0000  0.0000

 Gross Charges per Atom (Z minus electrons)
 ==========================================
             0.0000
 Net Total:  0.00000000


 Atom-Atom Population Matrix (off-diagonal elements not doubled)
 ===============================================================

     1 :     8.0000



 =============
 Dipole Moment  ***  (Debye)  ***
 =============
  
 Vector   :         0.00000000      0.00000000      0.00000000
 Magnitude:         0.00000000

 This molecular dipole moment is calculated with analytic integration



 =========================================
 Quadrupole Moment (Buckingham convention)  ***  (a.u.)  ***
 =========================================
  
      quad-xx        quad-xy        quad-xz        quad-yy        quad-yz        quad-zz
      0.00000000     0.00000000     0.00000000     0.00000000     0.00000000     0.00000000

 This molecular quadrupole moment is calculated with analytic integration



 ===============================================================================
 Electrostatic potential at the Nuclei due to valence electrons and other nuclei
 ===============================================================================
  
         Atom                  Potential
         ----                  ---------
     1)   O                  22.26490088
 
 
 ========================
 No memory problems found
 ========================
 
 Maximum number of active allocate calls:         476
 
 *******************************************************************************

                             A D F   E X I T
 NORMAL TERMINATION



 =================
 Timing Statistics
 =================
  
 Total Used :                     CPU=        0.43      System=        0.11     Elapsed=        1.78

 Calls  Section                     ( Mean, Percentage )
 ---------------------------------------------------------------------------------------------------
     3  ><      ................      0.00    0.56             0.00    0.77             0.01    1.48
     1  INIT    ................      0.01    2.88             0.01   10.20             0.12    6.95
     1  GEOMET  ................      0.02    4.44             0.03   27.06             0.12    6.83
     1  INPUTA  ................      0.00    0.67             0.00    1.46             0.01    0.32
     1  MAINSY  ................      0.01    2.13             0.01    6.39             0.06    3.24
     1  SYMFIT  ................      0.00    0.15             0.00    0.00             0.00    0.04
     1  CORORT  ................      0.00    0.29             0.00    0.00             0.01    0.43
     1  SYMORB  ................      0.00    0.43             0.00    0.00             0.00    0.10
     1  FITINT  ................      0.01    1.25             0.01    5.77             0.02    1.07
     1  CLSMAT  ................      0.00    0.00             0.00    1.05             0.02    0.99
     1  ORTHON  ................      0.00    0.74             0.00    1.14             0.01    0.69
     1  GENPT   ................      0.01    2.78             0.00    3.83             0.05    2.99
     1  PTBAS   ................      0.01    1.27             0.00    0.03             0.02    1.26
    12  FOCKY   ................      0.02   50.28             0.00   20.32             0.04   28.41
    12  FOCKTR  ................      0.00    1.76             0.00    0.58             0.00    0.46
    12  FOCKNM  ................      0.00    0.12             0.00    0.04             0.00    0.03
    12  SDIIS   ................      0.00    2.87             0.00    2.95             0.04   29.70
    12  EMERGE  ................      0.01   15.04             0.00   13.62             0.01    6.19
     1  COREPS  ................      0.01    1.96             0.00    0.63             0.02    1.20
     1  POPAN   ................      0.01    1.46             0.00    0.13             0.02    1.13
     1  DEBYE   ................      0.00    0.34             0.00    0.40             0.01    0.47
     1  QMPOT   ................      0.01    1.54             0.00    3.10             0.01    0.57
     1  EXIT PROCEDURE .........      0.03    7.04             0.00    0.54             0.10    5.46


 Currently Open Files (EXIT00)
 ====================

 Unit    Access Format  Status   Type       Ident (file)
 -------------------------------------------------------
   3      SEQ    FORM   TRANSP  NORMAL      LOGFILE
                                          ( logfile )


 Buffered I/O statistics
 =======================
 Memory available:                     67108864
 Number of records fitting in memory:     16131
 Input :   0.9% of                         6430  *4k bytes
 Output:   8.3% of                         2767  *4k bytes
 Records from serial files evicted:           0
                    others evicted:           0
 Hash table lookups:      25047 with          0 conflicts (  0.00%)

 ***************************************************************************************************
 (LOGFILE)
 <Jan01-2013> <00:00:01>  DIRAC 2013.01  RunTime: Jan01-2013 00:00:01  Nodes: 1  Procs: 1
 <Jan01-2013> <00:00:01>  NORMAL TERMINATION
 <Jan01-2013> <00:00:01>  END
 <Jan01-2013> <00:00:01>  ADF 2013.01  RunTime: Jan01-2013 00:00:01  Nodes: 1  Procs: 1
 <Jan01-2013> <00:00:01>  Hydrogen (QZ, all electron, 5S 2P 2D)
 <Jan01-2013> <00:00:01>  RunType   : CREATE
 <Jan01-2013> <00:00:01>  Net Charge: 0 (Nuclei minus Electrons)
 <Jan01-2013> <00:00:02>  Symmetry  : ATOM
  Coordinates
    Atom         X           Y           Z   (Angstrom)
    1.H         0.000000    0.000000    0.000000
 <Jan01-2013> <00:00:02>  >>>> CORORT
 <Jan01-2013> <00:00:02>  >>>> FITINT
 <Jan01-2013> <00:00:02>  >>>> CLSMAT
 <Jan01-2013> <00:00:02>  >>>> ORTHON
 <Jan01-2013> <00:00:02>  >>>> GENPT
 <Jan01-2013> <00:00:02>  Acc.Num.Int.=  10.000
 <Jan01-2013> <00:00:02>  Block Length=  44
 <Jan01-2013> <00:00:02>  >>>> PTBAS
 <Jan01-2013> <00:00:02>  >>>> CYCLE
 <Jan01-2013> <00:00:02>    1
 <Jan01-2013> <00:00:02>    2  ErrMat   0.03803841  MaxEl  0.03078708
 <Jan01-2013> <00:00:02>    3  ErrMat   0.00916622  MaxEl -0.00901560
 <Jan01-2013> <00:00:02>    4  ErrMat   0.00035667  MaxEl  0.00031421
 <Jan01-2013> <00:00:02>    5  ErrMat   0.00000962  MaxEl -0.00000892
 <Jan01-2013> <00:00:02>    6  ErrMat   0.00000013  MaxEl  0.00000008
 <Jan01-2013> <00:00:02>    7  ErrMat   0.00000000  MaxEl  0.00000000
 <Jan01-2013> <00:00:02>  SCF converged
 <Jan01-2013> <00:00:02>    8  ErrMat   0.00000000  MaxEl  0.00000000
 <Jan01-2013> <00:00:02>   Solutions with partially occupied orbitals may not be
 <Jan01-2013> <00:00:02>   lowest in energy. You might consider lowering the
 <Jan01-2013> <00:00:02>   symmetry in the input and explicitly specifying integer
 <Jan01-2013> <00:00:02>   occupations. In that case always check that you obtain
 <Jan01-2013> <00:00:02>   an aufbau solution.
 <Jan01-2013> <00:00:02>  >>>> POPAN
 <Jan01-2013> <00:00:02>  >>>> DEBYE
 <Jan01-2013> <00:00:02>  NORMAL TERMINATION
 <Jan01-2013> <00:00:02>  END
 <Jan01-2013> <00:00:03>  DIRAC 2013.01  RunTime: Jan01-2013 00:00:03  Nodes: 1  Procs: 1
 <Jan01-2013> <00:00:03>  NORMAL TERMINATION
 <Jan01-2013> <00:00:03>  END
 <Jan01-2013> <00:00:03>  ADF 2013.01  RunTime: Jan01-2013 00:00:03  Nodes: 1  Procs: 1
 <Jan01-2013> <00:00:03>  Oxygen (QZ, all electron, 8S 4P 2D 2F)
 <Jan01-2013> <00:00:03>  RunType   : CREATE
 <Jan01-2013> <00:00:03>  Net Charge: 0 (Nuclei minus Electrons)
 <Jan01-2013> <00:00:03>  Symmetry  : ATOM
  Coordinates
    Atom         X           Y           Z   (Angstrom)
    1.O         0.000000    0.000000    0.000000
 <Jan01-2013> <00:00:03>  >>>> CORORT
 <Jan01-2013> <00:00:03>  >>>> FITINT
 <Jan01-2013> <00:00:03>  >>>> CLSMAT
 <Jan01-2013> <00:00:03>  >>>> ORTHON
 <Jan01-2013> <00:00:04>  >>>> GENPT
 <Jan01-2013> <00:00:04>  Acc.Num.Int.=  10.000
 <Jan01-2013> <00:00:04>  Block Length=  61
 <Jan01-2013> <00:00:04>  >>>> PTBAS
 <Jan01-2013> <00:00:04>  >>>> CYCLE
 <Jan01-2013> <00:00:04>    1
 <Jan01-2013> <00:00:04>    2  ErrMat   9.74921119  MaxEl  4.13901188
 <Jan01-2013> <00:00:04>    3  ErrMat   3.70162576  MaxEl -2.91656477
 <Jan01-2013> <00:00:04>    4  ErrMat   2.94969142  MaxEl -1.91814781
 <Jan01-2013> <00:00:04>    5  ErrMat   1.88970508  MaxEl -1.07111527
 <Jan01-2013> <00:00:04>    6  ErrMat   0.04645268  MaxEl -0.01876708
 <Jan01-2013> <00:00:04>    7  ErrMat   0.02377734  MaxEl  0.01063637
 <Jan01-2013> <00:00:04>    8  ErrMat   0.00251040  MaxEl -0.00114123
 <Jan01-2013> <00:00:04>    9  ErrMat   0.00000968  MaxEl -0.00000432
 <Jan01-2013> <00:00:04>   10  ErrMat   0.00000018  MaxEl  0.00000007
 <Jan01-2013> <00:00:05>   11  ErrMat   0.00000000  MaxEl  0.00000000
 <Jan01-2013> <00:00:05>  SCF converged
 <Jan01-2013> <00:00:05>   12  ErrMat   0.00000000  MaxEl  0.00000000
 <Jan01-2013> <00:00:05>   Solutions with partially occupied orbitals may not be
 <Jan01-2013> <00:00:05>   lowest in energy. You might consider lowering the
 <Jan01-2013> <00:00:05>   symmetry in the input and explicitly specifying integer
 <Jan01-2013> <00:00:05>   occupations. In that case always check that you obtain
 <Jan01-2013> <00:00:05>   an aufbau solution.
 <Jan01-2013> <00:00:05>  >>>> POPAN
 <Jan01-2013> <00:00:05>  >>>> DEBYE
 <Jan01-2013> <00:00:05>  NORMAL TERMINATION
 <Jan01-2013> <00:00:05>  END

 *******************************************************************************
 *                                                                             *
 *  -------------------------------------                                      *
 *   Amsterdam Density Functional  (ADF)         2013.01   April 2, 2013       *
 *  -------------------------------------                                      *
 *                                               Build 201304112106            *
 *                                                                             *
 *                                                                             *
 *                            =====================                            *
 *                            |                   |                            *
 *                            |     D I R A C     |                            *
 *                            |                   |                            *
 *                            =====================                            *
 *                                                                             *
 *                                                                             *
 *   Online information and documentation:  http://www.scm.com                 *
 *   E-mail:  support@scm.com   info@scm.com                                   *
 *                                                                             *
 *   Scientific publications using ADF results must be properly referenced     *
 *   See the User Manuals (or the web site) for recommended citations          *
 *   The terms and conditions of the End User License Agreement apply to       *
 *   the use of ADF, http://www.scm.com/Sales/LicAgreement.html                *
 *                                                                             *
 ****************************  x86_64_linux_intel  *****************************
 
 Licensed to: Prof. Cacier Hadad / University of Antioquia / Medellin / COLOMBIA
 SCM User ID: u15319
  
 DIRAC 2013.01  RunTime: Jan01-2013 00:00:05  Nodes: 1  Procs: 1

 Temporary files are created in /tmp/kid_0.Ym9ajN

1
 MERCURY ATOM all electron RELATIVISTIC, Point Nuc, A and c f
 N J RN H ZN XION ANUC CLIGHT
 5000   22100.00000000197.36710137 80.00000000  0.00000000  201.970625  0.1370360E+03
  PH   PHI     EPS        DEL        DELRVR
  0.30  0.30     2500.00  0.00001000  0.00001000
 IDIRC  NC1  NDEBU NPRIN  IPUN IRCOR IWCOR
   1   300     0     0     0     0     0
   XALPHA      XLATTER      RNUC
  0.70000000  0.00000000  0.00000000 Point Charge
   XN   XL   XJ      XE          XZ      XDELL
  1.0  0.0  0.5   -2600.000       2.000     0.00000
  2.0  0.0  0.5    -425.000       2.000     0.00000
  2.0  1.0  0.5    -425.000       2.000     0.00000
  2.0  1.0  1.5    -425.000       4.000     0.00000
  3.0  0.0  0.5    -100.000       2.000     0.00000
  3.0  1.0  0.5    -100.000       2.000     0.00000
  3.0  1.0  1.5    -100.000       4.000     0.00000
  3.0  2.0  1.5     -80.000       4.000     0.00000
  3.0  2.0  2.5     -80.000       6.000     0.00000
  4.0  0.0  0.5     -22.000       2.000     0.00000
  4.0  1.0  0.5     -20.000       2.000     0.00000
  4.0  1.0  1.5     -20.000       4.000     0.00000
  4.0  2.0  1.5     -11.000       4.000     0.00000
  4.0  2.0  2.5     -11.000       6.000     0.00000
  5.0  0.0  0.5      -3.000       2.000     0.00000
  5.0  1.0  0.5      -2.200       2.000     0.00000
  5.0  1.0  1.5      -2.200       4.000     0.00000
  4.0  3.0  2.5      -1.000       6.000     0.00000
  4.0  3.0  3.5      -1.000       8.000     0.00000
  5.0  2.0  1.5      -0.500       4.000     0.00000
  5.0  2.0  2.5      -0.500       6.000     0.00000
  6.0  0.0  0.5      -0.200       2.000     0.00000
 ICORP=  0  NPCL=  0  DEMP=0.00  PEPS=0.000000
 R(1)=  0.1000000E-08 D=  0.1005080E+01 RNUC=  0.0000000E+00
 converged at cycle   71  DENSITY AVERAGING    0.0786
  MAXIMUM ERROR IN R.V(R) IS   0.62886379E-05
 Q,EY,EV,EZ,ESUM,ETOT,RHO  0.800000E+02 -0.496572E+03 -0.348382E+05 -0.496228E+05 -0.121443E+05 -0.196607E+05  0.241251E-08


 DIRAC CALCULATION
1                    MERCURY ATOM all electron RELATIVISTIC, Point Nuc, A and c from libtc


 EXCHANGE COEFFICIENT=  0.7000000           TAIL CORRECTION=  0.           NUCLEAR RADIUS=  0.000E+00
0                       ORBITAL    N    L    J     ELECTRONS     EIGENVALUE                DELTA OF EIGENV.

                          1S1/2  1.0  0.0  0.5     2.000       -0.3050991E+04                 0.4924760E-04
                          2S1/2  2.0  0.0  0.5     2.000       -0.5405089E+03                 0.4254074E-04
                          2P1/2  2.0  1.0  0.5     2.000       -0.5187363E+03                 0.4411548E-04
                          2P3/2  2.0  1.0  1.5     4.000       -0.4471398E+03                 0.4301762E-04
                          3S1/2  3.0  0.0  0.5     2.000       -0.1282616E+03                 0.3041592E-04
                          3P1/2  3.0  1.0  0.5     2.000       -0.1184367E+03                 0.3137989E-04
                          3P3/2  3.0  1.0  1.5     4.000       -0.1025748E+03                 0.2995242E-04
                          3D3/2  3.0  2.0  1.5     4.000       -0.8626975E+02                 0.3222472E-04
                          3D5/2  3.0  2.0  2.5     6.000       -0.8286728E+02                 0.3175282E-04
                          4S1/2  4.0  0.0  0.5     2.000       -0.2816781E+02                 0.1668735E-04
                          4P1/2  4.0  1.0  0.5     2.000       -0.2395484E+02                 0.1669817E-04
                          4P3/2  4.0  1.0  1.5     4.000       -0.2011425E+02                 0.1516031E-04
                          4D3/2  4.0  2.0  1.5     4.000       -0.1321824E+02                 0.1506585E-04
                          4D5/2  4.0  2.0  2.5     6.000       -0.1250170E+02                 0.1460097E-04
                          5S1/2  5.0  0.0  0.5     2.000       -0.4322160E+01                 0.4190347E-05
                          5P1/2  5.0  1.0  0.5     2.000       -0.2925196E+01                 0.3615407E-05
                          5P3/2  5.0  1.0  1.5     4.000       -0.2244086E+01                 0.2893507E-05
                          4F5/2  4.0  3.0  2.5     6.000       -0.3611586E+01                 0.1388062E-04
                          4F7/2  4.0  3.0  3.5     8.000       -0.3456598E+01                 0.1362401E-04
                          5D3/2  5.0  2.0  1.5     4.000       -0.3813662E+00                 0.1502810E-05
                          5D5/2  5.0  2.0  2.5     6.000       -0.3130964E+00                 0.1345942E-05
                          6S1/2  6.0  0.0  0.5     2.000       -0.2314499E+00                 0.2838078E-06


                                        NUCLEAR CHARGE=   80.000000
                            INTEGRAL OF CHARGE DENSITY=   80.000000
                           SUM OF THE ORBITAL ENERGIES= -12144.2566
                                          TOTAL ENERGY= -19660.7046
                                        KINETIC ENERGY=  22693.9156
                             NUCLEAR ATTRACTION ENERGY= -49622.7822
                             ELECTRON REPULSION ENERGY=   7640.5911
                                       EXCHANGE ENERGY=   -372.4292

 *******************************************************************************

                             D I R A C   E X I T
 NORMAL TERMINATION



 =================
 Timing Statistics
 =================
  
 Total Used :                     CPU=        1.10      System=        0.03     Elapsed=        1.33

 Calls  Section                     ( Mean, Percentage )
 ---------------------------------------------------------------------------------------------------
[...]
   10.H         3.571071   -1.516550    0.802221
 <Jan01-2013> <02:34:42>  >>>> CORORT
 <Jan01-2013> <02:34:43>  >>>> FITINT
 <Jan01-2013> <02:34:43>  >>>> CLSMAT
 <Jan01-2013> <02:34:47>  >>>> ORTHON
 <Jan01-2013> <02:34:48>  >>>> GENPT
 <Jan01-2013> <02:34:48>  Acc.Num.Int.=   6.000
 <Jan01-2013> <02:34:48>  Reusing previous cell geometry for gradient smoothing.
 <Jan01-2013> <02:34:49>  Block Length= 128
 <Jan01-2013> <02:34:50>  >>>> PTBAS
 <Jan01-2013> <02:35:16>  >>>> CYCLE
 <Jan01-2013> <02:35:18>    1
 <Jan01-2013> <02:35:23>    2  ErrMat   0.00014169  MaxEl  0.00003215
 <Jan01-2013> <02:35:29>    3  ErrMat   0.00007108  MaxEl  0.00001578
 <Jan01-2013> <02:35:36>    4  ErrMat   0.00004952  MaxEl  0.00001392
 <Jan01-2013> <02:35:41>    5  ErrMat   0.00004838  MaxEl -0.00001500
 <Jan01-2013> <02:35:46>    6  ErrMat   0.00000280  MaxEl  0.00000022
 <Jan01-2013> <02:35:51>  SCF converged
 <Jan01-2013> <02:35:54>    7  ErrMat   0.00000171  MaxEl -0.00000016
 <Jan01-2013> <02:36:02>  >>>> TOTEN
 <Jan01-2013> <02:36:09>  >>>> POPAN
 <Jan01-2013> <02:36:09>  >>>> DEBYE
 <Jan01-2013> <02:36:10>  >>>> AMETS
 <Jan01-2013> <02:36:10>  >>>> ENGRAD
  Coordinates in Frequency Displacement 51
    Atom         X           Y           Z   (Angstrom)
    1.Hg       -0.694847   -0.399716    0.000481
    2.O         1.303571    2.647964   -0.001092
    3.H         1.649669    3.107369    0.788816
    4.H         1.658745    3.106357   -0.787259
    5.O         1.204924    0.205302   -0.000169
    6.H         2.232315   -0.715156    0.000238
    7.H         1.268551    1.333109   -0.000561
    8.O         3.006812   -1.493775   -0.000307
    9.H         3.571687   -1.525174   -0.802310
   10.H         3.571071   -1.516550    0.802221
 <Jan01-2013> <02:36:55>  >>>> CORORT
 <Jan01-2013> <02:36:55>  >>>> FITINT
 <Jan01-2013> <02:36:56>  >>>> CLSMAT
 <Jan01-2013> <02:37:01>  >>>> ORTHON
 <Jan01-2013> <02:37:01>  >>>> GENPT
 <Jan01-2013> <02:37:01>  Acc.Num.Int.=   6.000
 <Jan01-2013> <02:37:02>  Reusing previous cell geometry for gradient smoothing.
 <Jan01-2013> <02:37:02>  Block Length= 128
 <Jan01-2013> <02:37:03>  >>>> PTBAS
 <Jan01-2013> <02:37:31>  >>>> CYCLE
 <Jan01-2013> <02:37:33>    1
 <Jan01-2013> <02:37:39>    2  ErrMat   0.01339017  MaxEl  0.00331705
 <Jan01-2013> <02:37:44>    3  ErrMat   0.00816954  MaxEl  0.00218219
 <Jan01-2013> <02:37:48>    4  ErrMat   0.01516956  MaxEl  0.00438224
 <Jan01-2013> <02:37:53>    5  ErrMat   0.00097636  MaxEl  0.00028194
 <Jan01-2013> <02:37:58>    6  ErrMat   0.00046010  MaxEl -0.00008186
 <Jan01-2013> <02:38:03>    7  ErrMat   0.00019249  MaxEl  0.00003181
 <Jan01-2013> <02:38:10>    8  ErrMat   0.00002179  MaxEl -0.00000411
 <Jan01-2013> <02:38:16>    9  ErrMat   0.00001357  MaxEl  0.00000137
 <Jan01-2013> <02:38:21>   10  ErrMat   0.00000220  MaxEl -0.00000030
 <Jan01-2013> <02:38:25>  SCF converged
 <Jan01-2013> <02:38:28>   11  ErrMat   0.00000097  MaxEl  0.00000017
 <Jan01-2013> <02:38:36>  >>>> TOTEN
 <Jan01-2013> <02:38:42>  >>>> POPAN
 <Jan01-2013> <02:38:42>  >>>> DEBYE
 <Jan01-2013> <02:38:43>  >>>> AMETS
 <Jan01-2013> <02:38:43>  >>>> ENGRAD
  Coordinates in Frequency Displacement 52
    Atom         X           Y           Z   (Angstrom)
    1.Hg       -0.694847   -0.399716    0.000481
    2.O         1.303571    2.647964   -0.001092
    3.H         1.649669    3.107369    0.788816
    4.H         1.658745    3.106357   -0.787259
    5.O         1.204924    0.205302   -0.000169
    6.H         2.232315   -0.715156    0.000238
    7.H         1.268551    1.333109   -0.000561
    8.O         3.006812   -1.493775   -0.000307
    9.H         3.571687   -1.505174   -0.802310
   10.H         3.571071   -1.516550    0.802221
 <Jan01-2013> <02:39:28>  >>>> CORORT
 <Jan01-2013> <02:39:28>  >>>> FITINT
 <Jan01-2013> <02:39:29>  >>>> CLSMAT
 <Jan01-2013> <02:39:32>  >>>> ORTHON
 <Jan01-2013> <02:39:33>  >>>> GENPT
 <Jan01-2013> <02:39:33>  Acc.Num.Int.=   6.000
 <Jan01-2013> <02:39:34>  Reusing previous cell geometry for gradient smoothing.
 <Jan01-2013> <02:39:34>  Block Length= 128
 <Jan01-2013> <02:39:36>  >>>> PTBAS
 <Jan01-2013> <02:40:02>  >>>> CYCLE
 <Jan01-2013> <02:40:04>    1
 <Jan01-2013> <02:40:10>    2  ErrMat   0.00003772  MaxEl -0.00000756
 <Jan01-2013> <02:40:14>    3  ErrMat   0.00002262  MaxEl -0.00000419
 <Jan01-2013> <02:40:19>    4  ErrMat   0.00003964  MaxEl -0.00001192
 <Jan01-2013> <02:40:24>    5  ErrMat   0.00001181  MaxEl  0.00000229
 <Jan01-2013> <02:40:29>    6  ErrMat   0.00000306  MaxEl -0.00000051
 <Jan01-2013> <02:40:31>  SCF converged
 <Jan01-2013> <02:40:33>    7  ErrMat   0.00000211  MaxEl -0.00000041
 <Jan01-2013> <02:40:38>  >>>> TOTEN
 <Jan01-2013> <02:40:44>  >>>> POPAN
 <Jan01-2013> <02:40:44>  >>>> DEBYE
 <Jan01-2013> <02:40:44>  >>>> AMETS
 <Jan01-2013> <02:40:45>  >>>> ENGRAD
  Coordinates in Frequency Displacement 53
    Atom         X           Y           Z   (Angstrom)
    1.Hg       -0.694847   -0.399716    0.000481
    2.O         1.303571    2.647964   -0.001092
    3.H         1.649669    3.107369    0.788816
    4.H         1.658745    3.106357   -0.787259
    5.O         1.204924    0.205302   -0.000169
    6.H         2.232315   -0.715156    0.000238
    7.H         1.268551    1.333109   -0.000561
    8.O         3.006812   -1.493775   -0.000307
    9.H         3.571687   -1.515174   -0.812310
   10.H         3.571071   -1.516550    0.802221
 <Jan01-2013> <02:41:29>  >>>> CORORT
 <Jan01-2013> <02:41:29>  >>>> FITINT
 <Jan01-2013> <02:41:30>  >>>> CLSMAT
 <Jan01-2013> <02:41:33>  >>>> ORTHON
 <Jan01-2013> <02:41:33>  >>>> GENPT
 <Jan01-2013> <02:41:33>  Acc.Num.Int.=   6.000
 <Jan01-2013> <02:41:33>  Reusing previous cell geometry for gradient smoothing.
 <Jan01-2013> <02:41:34>  Block Length= 128
 <Jan01-2013> <02:41:36>  >>>> PTBAS
 <Jan01-2013> <02:42:03>  >>>> CYCLE
 <Jan01-2013> <02:42:05>    1
 <Jan01-2013> <02:42:10>    2  ErrMat   0.01899133  MaxEl -0.00446293
 <Jan01-2013> <02:42:15>    3  ErrMat   0.00994801  MaxEl -0.00222198
 <Jan01-2013> <02:42:23>    4  ErrMat   0.00708330  MaxEl  0.00181984
 <Jan01-2013> <02:42:30>    5  ErrMat   0.00619087  MaxEl -0.00188476
 <Jan01-2013> <02:42:35>    6  ErrMat   0.00043088  MaxEl  0.00007094
 <Jan01-2013> <02:42:40>    7  ErrMat   0.00023800  MaxEl -0.00003879
 <Jan01-2013> <02:42:45>    8  ErrMat   0.00006558  MaxEl  0.00001184
 <Jan01-2013> <02:42:52>    9  ErrMat   0.00001798  MaxEl -0.00000241
 <Jan01-2013> <02:43:00>   10  ErrMat   0.00000486  MaxEl  0.00000076
 <Jan01-2013> <02:43:04>  SCF converged
 <Jan01-2013> <02:43:08>   11  ErrMat   0.00000103  MaxEl -0.00000016
 <Jan01-2013> <02:43:14>  >>>> TOTEN
 <Jan01-2013> <02:43:19>  >>>> POPAN
 <Jan01-2013> <02:43:19>  >>>> DEBYE
 <Jan01-2013> <02:43:19>  >>>> AMETS
 <Jan01-2013> <02:43:21>  >>>> ENGRAD
  Coordinates in Frequency Displacement 54
    Atom         X           Y           Z   (Angstrom)
    1.Hg       -0.694847   -0.399716    0.000481
    2.O         1.303571    2.647964   -0.001092
    3.H         1.649669    3.107369    0.788816
    4.H         1.658745    3.106357   -0.787259
    5.O         1.204924    0.205302   -0.000169
    6.H         2.232315   -0.715156    0.000238
    7.H         1.268551    1.333109   -0.000561
    8.O         3.006812   -1.493775   -0.000307
    9.H         3.571687   -1.515174   -0.792310
   10.H         3.571071   -1.516550    0.802221
 <Jan01-2013> <02:44:13>  >>>> CORORT
 <Jan01-2013> <02:44:13>  >>>> FITINT
 <Jan01-2013> <02:44:14>  >>>> CLSMAT
 <Jan01-2013> <02:44:18>  >>>> ORTHON
 <Jan01-2013> <02:44:19>  >>>> GENPT
 <Jan01-2013> <02:44:19>  Acc.Num.Int.=   6.000
 <Jan01-2013> <02:44:19>  Reusing previous cell geometry for gradient smoothing.
 <Jan01-2013> <02:44:20>  Block Length= 128
 <Jan01-2013> <02:44:21>  >>>> PTBAS
 <Jan01-2013> <02:44:49>  >>>> CYCLE
 <Jan01-2013> <02:44:52>    1
 <Jan01-2013> <02:44:59>    2  ErrMat   0.00029344  MaxEl  0.00006261
 <Jan01-2013> <02:45:07>    3  ErrMat   0.00013945  MaxEl  0.00002886
 <Jan01-2013> <02:45:13>    4  ErrMat   0.00003816  MaxEl -0.00000776
 <Jan01-2013> <02:45:18>    5  ErrMat   0.00001268  MaxEl  0.00000190
 <Jan01-2013> <02:45:25>    6  ErrMat   0.00000930  MaxEl -0.00000255
 <Jan01-2013> <02:45:35>    7  ErrMat   0.00000507  MaxEl  0.00000148
 <Jan01-2013> <02:45:43>    8  ErrMat   0.00000105  MaxEl -0.00000018
 <Jan01-2013> <02:45:46>  SCF converged
 <Jan01-2013> <02:45:49>    9  ErrMat   0.00000047  MaxEl  0.00000007
 <Jan01-2013> <02:45:56>  >>>> TOTEN
 <Jan01-2013> <02:46:01>  >>>> POPAN
 <Jan01-2013> <02:46:01>  >>>> DEBYE
 <Jan01-2013> <02:46:01>  >>>> AMETS
 <Jan01-2013> <02:46:01>  >>>> ENGRAD
  Coordinates in Frequency Displacement 55
    Atom         X           Y           Z   (Angstrom)
    1.Hg       -0.694847   -0.399716    0.000481
    2.O         1.303571    2.647964   -0.001092
    3.H         1.649669    3.107369    0.788816
    4.H         1.658745    3.106357   -0.787259
    5.O         1.204924    0.205302   -0.000169
    6.H         2.232315   -0.715156    0.000238
    7.H         1.268551    1.333109   -0.000561
    8.O         3.006812   -1.493775   -0.000307
    9.H         3.571687   -1.515174   -0.802310
   10.H         3.561071   -1.516550    0.802221
 <Jan01-2013> <02:46:52>  >>>> CORORT
 <Jan01-2013> <02:46:53>  >>>> FITINT
 <Jan01-2013> <02:46:53>  >>>> CLSMAT
 <Jan01-2013> <02:46:57>  >>>> ORTHON
 <Jan01-2013> <02:46:59>  >>>> GENPT
 <Jan01-2013> <02:46:59>  Acc.Num.Int.=   6.000
 <Jan01-2013> <02:46:59>  Reusing previous cell geometry for gradient smoothing.
 <Jan01-2013> <02:46:59>  Block Length= 128
 <Jan01-2013> <02:47:00>  >>>> PTBAS
 <Jan01-2013> <02:47:29>  >>>> CYCLE
 <Jan01-2013> <02:47:32>    1
 <Jan01-2013> <02:47:37>    2  ErrMat   0.01702750  MaxEl -0.00408103
 <Jan01-2013> <02:47:44>    3  ErrMat   0.00908791  MaxEl -0.00210656
 <Jan01-2013> <02:47:50>    4  ErrMat   0.01516733  MaxEl -0.00462669
 <Jan01-2013> <02:47:56>    5  ErrMat   0.00465415  MaxEl  0.00109651
 <Jan01-2013> <02:48:02>    6  ErrMat   0.00048325  MaxEl -0.00008890
 <Jan01-2013> <02:48:07>    7  ErrMat   0.00031649  MaxEl  0.00006411
 <Jan01-2013> <02:48:15>    8  ErrMat   0.00006908  MaxEl -0.00000786
 <Jan01-2013> <02:48:21>    9  ErrMat   0.00001999  MaxEl  0.00000197
 <Jan01-2013> <02:48:28>   10  ErrMat   0.00000415  MaxEl -0.00000048
 <Jan01-2013> <02:48:31>  SCF converged
 <Jan01-2013> <02:48:36>   11  ErrMat   0.00000141  MaxEl  0.00000019
 <Jan01-2013> <02:48:42>  >>>> TOTEN
 <Jan01-2013> <02:48:50>  >>>> POPAN
 <Jan01-2013> <02:48:51>  >>>> DEBYE
 <Jan01-2013> <02:48:51>  >>>> AMETS
 <Jan01-2013> <02:48:51>  >>>> ENGRAD
  Coordinates in Frequency Displacement 56
    Atom         X           Y           Z   (Angstrom)
    1.Hg       -0.694847   -0.399716    0.000481
    2.O         1.303571    2.647964   -0.001092
    3.H         1.649669    3.107369    0.788816
    4.H         1.658745    3.106357   -0.787259
    5.O         1.204924    0.205302   -0.000169
    6.H         2.232315   -0.715156    0.000238
    7.H         1.268551    1.333109   -0.000561
    8.O         3.006812   -1.493775   -0.000307
    9.H         3.571687   -1.515174   -0.802310
   10.H         3.581071   -1.516550    0.802221
 <Jan01-2013> <02:50:46>  >>>> CORORT
 <Jan01-2013> <02:50:46>  >>>> FITINT
 <Jan01-2013> <02:50:47>  >>>> CLSMAT
 <Jan01-2013> <02:50:51>  >>>> ORTHON
 <Jan01-2013> <02:50:52>  >>>> GENPT
 <Jan01-2013> <02:50:52>  Acc.Num.Int.=   6.000
 <Jan01-2013> <02:50:52>  Reusing previous cell geometry for gradient smoothing.
 <Jan01-2013> <02:50:52>  Block Length= 128
 <Jan01-2013> <02:50:53>  >>>> PTBAS
 <Jan01-2013> <02:51:26>  >>>> CYCLE
 <Jan01-2013> <02:51:28>    1
 <Jan01-2013> <02:51:37>    2  ErrMat   0.00014138  MaxEl -0.00003206
 <Jan01-2013> <02:51:47>    3  ErrMat   0.00007104  MaxEl -0.00001574
 <Jan01-2013> <02:51:54>    4  ErrMat   0.00004948  MaxEl  0.00001388
 <Jan01-2013> <02:52:02>    5  ErrMat   0.00004843  MaxEl -0.00001502
 <Jan01-2013> <02:52:09>    6  ErrMat   0.00000278  MaxEl  0.00000022
 <Jan01-2013> <02:52:13>  SCF converged
 <Jan01-2013> <02:52:16>    7  ErrMat   0.00000169  MaxEl -0.00000015
 <Jan01-2013> <02:52:22>  >>>> TOTEN
 <Jan01-2013> <02:52:30>  >>>> POPAN
 <Jan01-2013> <02:52:30>  >>>> DEBYE
 <Jan01-2013> <02:52:31>  >>>> AMETS
 <Jan01-2013> <02:52:32>  >>>> ENGRAD
  Coordinates in Frequency Displacement 57
    Atom         X           Y           Z   (Angstrom)
    1.Hg       -0.694847   -0.399716    0.000481
    2.O         1.303571    2.647964   -0.001092
    3.H         1.649669    3.107369    0.788816
    4.H         1.658745    3.106357   -0.787259
    5.O         1.204924    0.205302   -0.000169
    6.H         2.232315   -0.715156    0.000238
    7.H         1.268551    1.333109   -0.000561
    8.O         3.006812   -1.493775   -0.000307
    9.H         3.571687   -1.515174   -0.802310
   10.H         3.571071   -1.526550    0.802221
 <Jan01-2013> <02:53:42>  >>>> CORORT
 <Jan01-2013> <02:53:42>  >>>> FITINT
 <Jan01-2013> <02:53:43>  >>>> CLSMAT
 <Jan01-2013> <02:53:46>  >>>> ORTHON
 <Jan01-2013> <02:53:47>  >>>> GENPT
 <Jan01-2013> <02:53:47>  Acc.Num.Int.=   6.000
 <Jan01-2013> <02:53:47>  Reusing previous cell geometry for gradient smoothing.
 <Jan01-2013> <02:53:48>  Block Length= 128
 <Jan01-2013> <02:53:48>  >>>> PTBAS
 <Jan01-2013> <02:54:20>  >>>> CYCLE
 <Jan01-2013> <02:54:23>    1
 <Jan01-2013> <02:54:29>    2  ErrMat   0.01338991  MaxEl  0.00331701
 <Jan01-2013> <02:54:36>    3  ErrMat   0.00816958  MaxEl  0.00218213
 <Jan01-2013> <02:54:42>    4  ErrMat   0.01516957  MaxEl  0.00438213
 <Jan01-2013> <02:54:52>    5  ErrMat   0.00097467  MaxEl  0.00028270
 <Jan01-2013> <02:55:00>    6  ErrMat   0.00045943  MaxEl -0.00008181
 <Jan01-2013> <02:55:10>    7  ErrMat   0.00019250  MaxEl  0.00003179
 <Jan01-2013> <02:55:16>    8  ErrMat   0.00002138  MaxEl -0.00000400
 <Jan01-2013> <02:55:22>    9  ErrMat   0.00001340  MaxEl  0.00000133
 <Jan01-2013> <02:55:28>   10  ErrMat   0.00000218  MaxEl  0.00000031
 <Jan01-2013> <02:55:32>  SCF converged
 <Jan01-2013> <02:55:34>   11  ErrMat   0.00000075  MaxEl -0.00000012
 <Jan01-2013> <02:55:40>  >>>> TOTEN
 <Jan01-2013> <02:55:47>  >>>> POPAN
 <Jan01-2013> <02:55:47>  >>>> DEBYE
 <Jan01-2013> <02:55:48>  >>>> AMETS
 <Jan01-2013> <02:55:49>  >>>> ENGRAD
  Coordinates in Frequency Displacement 58
    Atom         X           Y           Z   (Angstrom)
    1.Hg       -0.694847   -0.399716    0.000481
    2.O         1.303571    2.647964   -0.001092
    3.H         1.649669    3.107369    0.788816
    4.H         1.658745    3.106357   -0.787259
    5.O         1.204924    0.205302   -0.000169
    6.H         2.232315   -0.715156    0.000238
    7.H         1.268551    1.333109   -0.000561
    8.O         3.006812   -1.493775   -0.000307
    9.H         3.571687   -1.515174   -0.802310
   10.H         3.571071   -1.506550    0.802221
 <Jan01-2013> <02:56:54>  >>>> CORORT
 <Jan01-2013> <02:56:55>  >>>> FITINT
 <Jan01-2013> <02:56:56>  >>>> CLSMAT
 <Jan01-2013> <02:56:59>  >>>> ORTHON
 <Jan01-2013> <02:57:00>  >>>> GENPT
 <Jan01-2013> <02:57:00>  Acc.Num.Int.=   6.000
 <Jan01-2013> <02:57:00>  Reusing previous cell geometry for gradient smoothing.
 <Jan01-2013> <02:57:01>  Block Length= 128
 <Jan01-2013> <02:57:02>  >>>> PTBAS
 <Jan01-2013> <02:57:33>  >>>> CYCLE
 <Jan01-2013> <02:57:36>    1
 <Jan01-2013> <02:57:42>    2  ErrMat   0.00003766  MaxEl  0.00000753
 <Jan01-2013> <02:57:47>    3  ErrMat   0.00002258  MaxEl  0.00000418
 <Jan01-2013> <02:57:54>    4  ErrMat   0.00003969  MaxEl -0.00001192
 <Jan01-2013> <02:58:02>    5  ErrMat   0.00001167  MaxEl  0.00000228
 <Jan01-2013> <02:58:09>    6  ErrMat   0.00000296  MaxEl -0.00000050
 <Jan01-2013> <02:58:12>  SCF converged
 <Jan01-2013> <02:58:17>    7  ErrMat   0.00000200  MaxEl -0.00000039
 <Jan01-2013> <02:58:23>  >>>> TOTEN
 <Jan01-2013> <02:58:31>  >>>> POPAN
 <Jan01-2013> <02:58:32>  >>>> DEBYE
 <Jan01-2013> <02:58:32>  >>>> AMETS
 <Jan01-2013> <02:58:33>  >>>> ENGRAD
  Coordinates in Frequency Displacement 59
    Atom         X           Y           Z   (Angstrom)
    1.Hg       -0.694847   -0.399716    0.000481
    2.O         1.303571    2.647964   -0.001092
    3.H         1.649669    3.107369    0.788816
    4.H         1.658745    3.106357   -0.787259
    5.O         1.204924    0.205302   -0.000169
    6.H         2.232315   -0.715156    0.000238
    7.H         1.268551    1.333109   -0.000561
    8.O         3.006812   -1.493775   -0.000307
    9.H         3.571687   -1.515174   -0.802310
   10.H         3.571071   -1.516550    0.792221
 <Jan01-2013> <02:59:38>  >>>> CORORT
 <Jan01-2013> <02:59:38>  >>>> FITINT
 <Jan01-2013> <02:59:39>  >>>> CLSMAT
 <Jan01-2013> <02:59:42>  >>>> ORTHON
 <Jan01-2013> <02:59:42>  >>>> GENPT
 <Jan01-2013> <02:59:42>  Acc.Num.Int.=   6.000
 <Jan01-2013> <02:59:43>  Reusing previous cell geometry for gradient smoothing.
 <Jan01-2013> <02:59:43>  Block Length= 128
 <Jan01-2013> <02:59:44>  >>>> PTBAS
 <Jan01-2013> <03:00:16>  >>>> CYCLE
 <Jan01-2013> <03:00:19>    1
 <Jan01-2013> <03:00:28>    2  ErrMat   0.01861747  MaxEl -0.00421907
 <Jan01-2013> <03:00:36>    3  ErrMat   0.00988905  MaxEl -0.00208890
 <Jan01-2013> <03:00:46>    4  ErrMat   0.00732339  MaxEl -0.00188596
 <Jan01-2013> <03:00:53>    5  ErrMat   0.00613623  MaxEl  0.00185587
 <Jan01-2013> <03:01:01>    6  ErrMat   0.00041098  MaxEl -0.00006825
 <Jan01-2013> <03:01:09>    7  ErrMat   0.00024006  MaxEl  0.00003868
 <Jan01-2013> <03:01:15>    8  ErrMat   0.00006682  MaxEl -0.00001220
 <Jan01-2013> <03:01:20>    9  ErrMat   0.00002048  MaxEl  0.00000280
 <Jan01-2013> <03:01:29>   10  ErrMat   0.00000542  MaxEl  0.00000081
 <Jan01-2013> <03:01:36>  SCF converged
 <Jan01-2013> <03:01:39>   11  ErrMat   0.00000138  MaxEl -0.00000022
 <Jan01-2013> <03:01:45>  >>>> TOTEN
 <Jan01-2013> <03:01:54>  >>>> POPAN
 <Jan01-2013> <03:01:54>  >>>> DEBYE
 <Jan01-2013> <03:01:54>  >>>> AMETS
 <Jan01-2013> <03:01:55>  >>>> ENGRAD
  Coordinates in Frequency Displacement 60
    Atom         X           Y           Z   (Angstrom)
    1.Hg       -0.694847   -0.399716    0.000481
    2.O         1.303571    2.647964   -0.001092
    3.H         1.649669    3.107369    0.788816
    4.H         1.658745    3.106357   -0.787259
    5.O         1.204924    0.205302   -0.000169
    6.H         2.232315   -0.715156    0.000238
    7.H         1.268551    1.333109   -0.000561
    8.O         3.006812   -1.493775   -0.000307
    9.H         3.571687   -1.515174   -0.802310
   10.H         3.571071   -1.516550    0.812221
 <Jan01-2013> <03:03:30>  >>>> CORORT
 <Jan01-2013> <03:03:30>  >>>> FITINT
 <Jan01-2013> <03:03:31>  >>>> CLSMAT
 <Jan01-2013> <03:03:35>  >>>> ORTHON
 <Jan01-2013> <03:03:36>  >>>> GENPT
 <Jan01-2013> <03:03:36>  Acc.Num.Int.=   6.000
 <Jan01-2013> <03:03:36>  Reusing previous cell geometry for gradient smoothing.
 <Jan01-2013> <03:03:36>  Block Length= 128
 <Jan01-2013> <03:03:37>  >>>> PTBAS
 <Jan01-2013> <03:04:11>  >>>> CYCLE
 <Jan01-2013> <03:04:14>    1
 <Jan01-2013> <03:04:23>    2  ErrMat   0.00027379  MaxEl -0.00005860
 <Jan01-2013> <03:04:30>    3  ErrMat   0.00012769  MaxEl -0.00002660
 <Jan01-2013> <03:04:37>    4  ErrMat   0.00003287  MaxEl  0.00000641
 <Jan01-2013> <03:04:44>    5  ErrMat   0.00001392  MaxEl -0.00000320
 <Jan01-2013> <03:04:52>    6  ErrMat   0.00001131  MaxEl  0.00000353
 <Jan01-2013> <03:05:00>    7  ErrMat   0.00000365  MaxEl -0.00000073
 <Jan01-2013> <03:05:05>  SCF converged
 <Jan01-2013> <03:05:08>    8  ErrMat   0.00000084  MaxEl -0.00000015
 <Jan01-2013> <03:05:14>  >>>> TOTEN
 <Jan01-2013> <03:05:22>  >>>> POPAN
 <Jan01-2013> <03:05:22>  >>>> DEBYE
 <Jan01-2013> <03:05:23>  >>>> AMETS
 <Jan01-2013> <03:05:23>  >>>> ENGRAD
 <Jan01-2013> <03:06:52>  Force Constants computed
 <Jan01-2013> <03:06:53>  NORMAL TERMINATION
 <Jan01-2013> <03:06:53>  END
 <Jan01-2013> <03:06:53>  Total Bonding Energy: -41.50034389
