
 *******************************************************************************
 *                                                                             *
 *  -------------------------------------                                      *
 *   Amsterdam Density Functional  (ADF)         2013.01   April 2, 2013       *
 *  -------------------------------------                                      *
 *                                               Build 201304112106            *
 *                                                                             *
 *                                                                             *
 *                            =====================                            *
 *                            |                   |                            *
 *                            |     D I R A C     |                            *
 *                            |                   |                            *
 *                            =====================                            *
 *                                                                             *
 *                                                                             *
 *   Online information and documentation:  http://www.scm.com                 *
 *   E-mail:  support@scm.com   info@scm.com                                   *
 *                                                                             *
 *   Scientific publications using ADF results must be properly referenced     *
 *   See the User Manuals (or the web site) for recommended citations          *
 *   The terms and conditions of the End User License Agreement apply to       *
 *   the use of ADF, http://www.scm.com/Sales/LicAgreement.html                *
 *                                                                             *
 ****************************  x86_64_linux_intel  *****************************
 
 Licensed to: Prof. Cacier Hadad / University of Antioquia / Medellin / COLOMBIA
 SCM User ID: u15319
  
 DIRAC 2013.01  RunTime: Jan01-2013 00:00:00  Nodes: 1  Procs: 1

 Temporary files are created in /tmp/kid_0.uHpEju

1
 HYDROGEN ATOM RELATIVISTIC, Point Nuc, A and c from libtc   
 N J RN H ZN XION ANUC CLIGHT
 5000    1100.00000000197.36710137  1.00000000  0.00000000    1.007825  0.1370360E+03
  PH   PHI     EPS        DEL        DELRVR
  0.30  0.30     2500.00  0.00001000  0.00001000
 IDIRC  NC1  NDEBU NPRIN  IPUN IRCOR IWCOR
   1   300     0     0     0     0     0
   XALPHA      XLATTER      RNUC
  0.70000000  0.00000000  0.00000000 Point Charge
   XN   XL   XJ      XE          XZ      XDELL
  1.0  0.0  0.5      -1.000       1.000     0.00000
 ICORP=  0  NPCL=  0  DEMP=0.00  PEPS=0.000000
 R(1)=  0.1000000E-08 D=  0.1005080E+01 RNUC=  0.0000000E+00
 converged at cycle   32  DENSITY AVERAGING    0.2400
  MAXIMUM ERROR IN R.V(R) IS   0.79874357E-05
 Q,EY,EV,EZ,ESUM,ETOT,RHO  0.100000E+01 -0.266614E+00 -0.619969E+00 -0.910779E+00 -0.203940E+00 -0.415998E+00  0.337036E-17


 DIRAC CALCULATION
1                    HYDROGEN ATOM RELATIVISTIC, Point Nuc, A and c from libtc


 EXCHANGE COEFFICIENT=  0.7000000           TAIL CORRECTION=  0.           NUCLEAR RADIUS=  0.000E+00
0                       ORBITAL    N    L    J     ELECTRONS     EIGENVALUE                DELTA OF EIGENV.

                          1S1/2  1.0  0.0  0.5     1.000       -0.2039397E+00                 0.2720093E-06


                                        NUCLEAR CHARGE=    1.000000
                            INTEGRAL OF CHARGE DENSITY=    1.000000
                           SUM OF THE ORBITAL ENERGIES=     -0.2039
                                          TOTAL ENERGY=     -0.4160
                                        KINETIC ENERGY=      0.4160
                             NUCLEAR ATTRACTION ENERGY=     -0.9108
                             ELECTRON REPULSION ENERGY=      0.2787
                                       EXCHANGE ENERGY=     -0.2000

 *******************************************************************************

                             D I R A C   E X I T
 NORMAL TERMINATION



 =================
 Timing Statistics
 =================
  
 Total Used :                     CPU=        0.11      System=        0.04     Elapsed=        0.26

 Calls  Section                     ( Mean, Percentage )
 ---------------------------------------------------------------------------------------------------
     2  ><      ................      0.00    0.00             0.00    0.03             0.00    0.01
     1  EXIT PROCEDURE .........      0.11  100.00             0.04   99.97             0.26   99.99


 Currently Open Files (EXIT00)
 ====================

 Unit    Access Format  Status   Type       Ident (file)
 -------------------------------------------------------
   3      SEQ    FORM   TRANSP  NORMAL      LOGFILE
                                          ( logfile )


 Buffered I/O statistics
 =======================
 Memory available:                     67108864
 Number of records fitting in memory:     16131
 Input : 100.0% of                            0  *4k bytes
 Output: 100.0% of                            0  *4k bytes
 Records from serial files evicted:           0
                    others evicted:           0
 Hash table lookups:          0 with          0 conflicts (100.00%)
(INPUT FILE)
Create H   file=/home/andyzapa/adf2013.01/atomicdata/ZORA/QZ4P/H
 XC
 GGA PBE
End
relativistic ZORA
Corepotentials t12.rel
End Input

 *******************************************************************************
 *                                                                             *
 *  -------------------------------------                                      *
 *   Amsterdam Density Functional  (ADF)         2013.01   April 2, 2013       *
 *  -------------------------------------                                      *
 *                                               Build 201304112215            *
 *                                                                             *
 *                                                                             *
 *                              =================                              *
 *                              |               |                              *
 *                              |     A D F     |                              *
 *                              |               |                              *
 *                              =================                              *
 *                                                                             *
 *                                                                             *
 *   Online information and documentation:  http://www.scm.com                 *
 *   E-mail:  support@scm.com   info@scm.com                                   *
 *                                                                             *
 *   Scientific publications using ADF results must be properly referenced     *
 *   See the User Manuals (or the web site) for recommended citations          *
 *   The terms and conditions of the End User License Agreement apply to       *
 *   the use of ADF, http://www.scm.com/Sales/LicAgreement.html                *
 *                                                                             *
 ********************  x86_64_linux_intel / platform_mpi  **********************
 
 Licensed to: Prof. Cacier Hadad / University of Antioquia / Medellin / COLOMBIA
 SCM User ID: u15319
  
 ADF 2013.01  RunTime: Jan01-2013 00:00:01  Nodes: 1  Procs: 1

 Temporary files are created in /tmp/kid_0.rmc7hW

 Hydrogen (QZ, all electron, 5S 2P 2D)



 ===========================
 A T T A C H E D   F I L E S
 ===========================
  
 CREATE - Data File:    /home/andyzapa/adf2013.01/atomicdata/ZORA/QZ4P/H
                        Hydrogen (QZ, all electron, 5S 2P 2D)
 Core Potentials:
         file : t12.rel



 ===============================
 M O D E L   P A R A M E T E R S
 ===============================
  
 DENSITY FUNCTIONAL POTENTIAL (scf)
    LDA:                               PW92                                    == Not Default ==
    Gradient Corrections:              PBEc PBEx                               == Not Default ==

 SPIN  (restricted / unrestr.)
    Molecule:                          Restricted                               

 OTHER ASPECTS
    Relativistic Corrections:          scalar (ZORA,SAPA)                      == Not Default ==

    Nuclear Charge Density Model:      Point Charge Nuclei                                                                                                                                                                                     
    Core Treatment:                    Frozen Orbital(s)                        

    Hyperfine or Zeeman Interaction:   ---                                      



 =====================================
 S Y M M E T R Y ,   E L E C T R O N S
 =====================================
  
 Symmetry: ATOM

 Irreducible Representations, including subspecies
 -------------------------------------------------
 S
 P:x  P:y  P:z
 D:z2  D:x2-y2  D:xy  D:xz  D:yz
 F:z3  F:z  F:xyz  F:z2x  F:z2y  F:x  F:y


 Configuration of Valence Electrons
 ==================================

          Occupation Numbers
          -------------------------------------------------
 S        1
 P        0
 D        0
 F        0
          -------------------------------------------------

 Total:   1

 Net Charge: 0 (Nuclei minus Electrons)

 Preset values for MO occupations will be applied through SCF cycle no. 1000000
 Thereafter, the program will assign electrons to MOs that are spatially
 similar to the occupied MOs in a "reference" cycle ("KeepOrbitals").
 The reference cycle is always the PREVIOUS cycle: it will evolve with
 the SCF procedure.



 ================================
 (Slater-type)  F U N C T I O N S  ***  (Basis and Fit)  ***
 ================================
  

 Atom Type    1  (H)
 ==============

 Valence Basis Sets:   9
 -----------------------
   1 S    3.300000
   1 S    2.000000
   1 S    1.400000
   1 S    1.000000
   1 S    0.710000
   2 P    2.000000
   2 P    1.000000
   3 D    2.500000
   3 D    1.500000

 Charge Fitting Sets (for the computation of the Coulomb Potential):  22
 -----------------------------------------------------------------------
   1 S    6.600000
   1 S    4.620000
   1 S    3.230000
   1 S    2.260000
   1 S    1.580000
   1 S    1.100000
   1 S    0.770000
   2 S    1.000000
   2 P    5.300000
   2 P    3.870000
   2 P    2.820000
   2 P    2.060000
   2 P    1.500000
   3 D    5.800000
   3 D    4.070000
   3 D    2.850000
   3 D    2.000000
   4 F    4.500000
   4 F    3.350000
   4 F    2.500000
   5 G    5.000000
   5 G    3.000000


 BAS: List of all Elementary Cartesian Basis Functions
 =====================================================

 The numbering in the list below (to the right of the function characteristics) is referred
 to in print-outs of MO eigenvectors and Mulliken populations in the BAS representation
 (as contrasted to the SFO representation).

 Notes:
 1. The functions are characterized by a polynomial prefactor (powers of x,y,z and r) and
    an exponential decay factor alpha.
 2. Since the basis sets are specific for an atom TYPE, the individual functions occur on
    all atoms of that type.
 3. The word 'Core' in the left margin signals that it is a Core Function (CF) : not a
    degree of freedom in the valence set, but only used to ensure orthogonalization of
    the other valence basis functions on the frozen Core Orbitals.


 (power of) X  Y  Z  R     Alpha  on Atom
            ==========     =====     ==========

 H                                    1
                                  ---------------------------------------------------------------------------
            0  0  0  0     3.300      1
            0  0  0  0     2.000      2
            0  0  0  0     1.400      3
            0  0  0  0     1.000      4
            0  0  0  0     0.710      5
            1  0  0  0     2.000      6
            0  1  0  0     2.000      7
            0  0  1  0     2.000      8
            1  0  0  0     1.000      9
            0  1  0  0     1.000     10
            0  0  1  0     1.000     11
            2  0  0  0     2.500     12
            1  1  0  0     2.500     13
            1  0  1  0     2.500     14
            0  2  0  0     2.500     15
            0  1  1  0     2.500     16
            0  0  2  0     2.500     17
            2  0  0  0     1.500     18
            1  1  0  0     1.500     19
            1  0  1  0     1.500     20
            0  2  0  0     1.500     21
            0  1  1  0     1.500     22
            0  0  2  0     1.500     23

 Total number of charge fitting functions (nprimf)       107
 Total number of Cartesian basis functions (naos)         23
 Total number of Cartesian core functions  (ncos)          0



 BAS: List of all Elementary Cartesian Basis Functions
 =====================================================

 The numbering in the list below (to the right of the function characteristics) is referred
 to in print-outs of MO eigenvectors and Mulliken populations in the BAS representation
 (as contrasted to the SFO representation).

 Notes:
 1. The functions are characterized by a polynomial prefactor (powers of x,y,z and r) and
    an exponential decay factor alpha.
 2. Since the basis sets are specific for an atom TYPE, the individual functions occur on
    all atoms of that type.
 3. The word 'Core' in the left margin signals that it is a Core Function (CF) : not a
    degree of freedom in the valence set, but only used to ensure orthogonalization of
    the other valence basis functions on the frozen Core Orbitals.


 (power of) X  Y  Z  R     Alpha  on Atom
            ==========     =====     ==========

 H                                    1
                                  ---------------------------------------------------------------------------
            0  0  0  0     3.300      1
            0  0  0  0     2.000      2
            0  0  0  0     1.400      3
            0  0  0  0     1.000      4
            0  0  0  0     0.710      5
            1  0  0  0     2.000      6
            0  1  0  0     2.000      7
            0  0  1  0     2.000      8
            1  0  0  0     1.000      9
            0  1  0  0     1.000     10
            0  0  1  0     1.000     11
            2  0  0  0     2.500     12
            1  1  0  0     2.500     13
            1  0  1  0     2.500     14
            0  2  0  0     2.500     15
            0  1  1  0     2.500     16
            0  0  2  0     2.500     17
            2  0  0  0     1.500     18
            1  1  0  0     1.500     19
            1  0  1  0     1.500     20
            0  2  0  0     1.500     21
            0  1  1  0     1.500     22
            0  0  2  0     1.500     23
1
 ***************************************************************************************************



                                              ***********************
                                              *  T E C H N I C A L  *
                                              ***********************
  



 =============================================================
 P A R A L L E L I Z A T I O N  and  V E C T O R I Z A T I O N
 =============================================================
  
 Nr of parallel processes:                                1
 Maximum vector length in NumInt loops:                 128



 ===============
 I O  vs.  C P U  ***  (store numerical data on disk or recalculate)  ***
 ===============
  
 Basis functions:   recalculate when needed
 Fit functions:     recalculate when needed

 IO buffersize (Mb):                                     64.000000



 =====================
 S C F   U P D A T E S
 =====================
  
 Max. nr. of cycles:                               100
 Convergence criterion:                              0.0000000100
   secondary criterion:                              0.0000000100

 Mix parameter (when DIIS does not apply):           0.2000000000
 Special mix parameter for the first cycle:          1.0000000000


 DIIS (Direct Inversion in Iteration Space)
    Replace damping when SCF Error is below:         0.5000000000
    Apply anyway after SCF cycle:
                                                     5
    (Max.) nr. of expansion vectors:                10

    Upperbound on expansion coefficients:            5.0000000000
    (when exceeded, IterationSpace is re-built)
    2nd Upperbound on coefficients:                 25.0000000000
    (when exceeded, simple damping will be used)
 Automatic ElectronSmearing (in case of problematic SCF convergence) disabled



 =================
 P R E C I S I O N  ***  (General: NumInt, NeglectFunctionTails, ...)  ***
 =================
  

 NumInt:           Target precision:                10.0000000000
 -------           Initial precision:               10.0000000000
                   Min. precision (optimization):   10.0000000000

 Neglect Functions:          Basis functions:        0.1000000000E-11
 ------------------          Fit functions:          0.1000000000E-11



 ===========================
 L I N E A R   S C A L I N G
 ===========================
  

 Cut-off radii density fit:                        0.1000000000E-13
 Overlap cut-off criterion AO matrix elements:     0.1000000000E-11
 Cut-offs for Coulomb potential and fitted density:0.1000000000E-13
 Cut-off criterion for Coulomb multipole terms:    0.1000000000E-13
 Progressive Convergence parameter:                 0.000000000    
1
 ***************************************************************************************************



                                            ***************************
                                            *  C O M P U T A T I O N  *
                                            ***************************
  

 Number of elements of the density matrix on this node (used, total):       276       276



 ====================================================
 Numerical Integration : Voronoi Polyhedra (Te Velde)
 ====================================================
  
 General Accuracy Parameter :                         10.00

 Symmetry used in the points section:  ATOM  


 Summary of the Symmetry Unique Points:
 --------------------------------------
    Nr. of used Symmetry Operators                     1

    Points in the Atomic Spheres                      44
    Points in the Atomic Polyhedra                     0
    Points in the Outer Region                         0
    ----------------------------------------------------
    Total                                             44

    Sum of Weights                                 33854.777883

 Total nr. of points:         44
 Nr. of blocks:                1
 Block length:                44
 Nr. of dummy points:          0


 Test of Precision of the Numerical Integration Grid
 ===================================================

 Integral of the Total Core Density:                   0.00000000000000



 =====
 S C F
 =====
  

 CYCLE    1
 orbitals (Q,E):
 ---------------
 S :1...5            ( 1.00    -0.5000)  ( 0.00    -0.1102)  ( 0.00     0.2912)  ( 0.00     2.1458)
                     ( 0.00    15.1140)
 P :1...2            ( 0.00    -0.0467)  ( 0.00     1.6698)
 D :1...2            ( 0.00     0.4090)  ( 0.00     3.3827)

 CYCLE    2
 d-Pmat  mean:  0.40E-01
 imax=      4: -0.73E+00
 orbitals (Q,E):
 ---------------
 S :1...2            ( 1.00    -0.2213)  ( 0.00     0.0617)
 P :1...1            ( 0.00     0.1820)
 D :1...1            ( 0.00     0.6395)

 CYCLE    3
 d-Pmat  mean:  0.48E-02
 imax=      4:  0.66E-01
 orbitals (Q,E):
 ---------------
 S :1...2            ( 1.00    -0.2392)  ( 0.00     0.0523)
 P :1...1            ( 0.00     0.1713)
 D :1...1            ( 0.00     0.6290)

 CYCLE    4
 d-Pmat  mean:  0.47E-03
 imax=      4: -0.74E-02
 orbitals (Q,E):
 ---------------
 S :1...2            ( 1.00    -0.2386)  ( 0.00     0.0522)
 P :1...1            ( 0.00     0.1716)
 D :1...1            ( 0.00     0.6293)

 CYCLE    5
 d-Pmat  mean:  0.13E-04
 imax=      4:  0.20E-03
 orbitals (Q,E):
 ---------------
 S :1...2            ( 1.00    -0.2386)  ( 0.00     0.0522)
 P :1...1            ( 0.00     0.1716)
 D :1...1            ( 0.00     0.6293)

 CYCLE    6
 d-Pmat  mean:  0.14E-06
 imax=      4:  0.26E-05
 orbitals (Q,E):
 ---------------
 S :1...2            ( 1.00    -0.2386)  ( 0.00     0.0522)
 P :1...1            ( 0.00     0.1716)
 D :1...1            ( 0.00     0.6293)

 CYCLE    7
 d-Pmat  mean:  0.24E-08
 imax=      4:  0.39E-07
 orbitals (Q,E):
 ---------------
 S :1...2            ( 1.00    -0.2386)  ( 0.00     0.0522)
 P :1...1            ( 0.00     0.1716)
 D :1...1            ( 0.00     0.6293)

 SCF CONVERGED

 CYCLE    8
1
 ***************************************************************************************************



                                                *******************
                                                *  R E S U L T S  *
                                                *******************
  
 *** Setting up for NEW gradients in focky
 *** Using FIT density in focky

 Scaled ZORA Orbital Energies, per Irrep and Spin:
 =================================================
                        Occup              E (au)              E (eV)       Diff (eV) with prev. cycle
                        -----      --------------------        ------       --------------------------
 S
               1        1.000     -0.23860414448778E+00        -6.493              -2.14E-10
               2        0.000      0.52240780773135E-01         1.422
               3        0.000      0.50128711414798E+00        13.641
               4        0.000      0.23892611828176E+01        65.015
               5        0.000      0.15295018626305E+02       416.199
 P
               1        0.000      0.17156247999750E+00         4.668
               2        0.000      0.19364620405874E+01        52.694
 D
               1        0.000      0.62928666110106E+00        17.124
               2        0.000      0.36544214463356E+01        99.442


 Partially Occupied:
               1 S                -0.23860414448778E+00
  
 LUMO :        2 S                 0.52240780773135E-01
  


 Orbital Energies, all Irreps
 ========================================

 Irrep        no.  (spin)   Occup              E (au)                E (eV)
 ---------------------------------------------------------------------------
 S             1             1.00       -0.23860414448778E+00        -6.4927
 S             2             0.00        0.52240780773135E-01         1.4215
 P             1             0.00        0.17156247999750E+00         4.6685
 S             3             0.00        0.50128711414798E+00        13.6407
 D             1             0.00        0.62928666110106E+00        17.1238
 P             2             0.00        0.19364620405874E+01        52.6938
 S             4             0.00        0.23892611828176E+01        65.0151
 D             2             0.00        0.36544214463356E+01        99.4419
 S             5             0.00        0.15295018626305E+02       416.1986


 All Electron Calculation, thus no Orbital Energies of the Core Orbitals are calculated



 =======================================
 M U L L I K E N   P O P U L A T I O N S
 =======================================
  
 The survey below gives for each atom:
 a) the total charge (Z minus electrons)
 b) the net spin polarization (nr of electrons spin-A minus spin-B)
 c) for each spin the atomic electron valence density (integrated) per L-value.

 Atom              Charge    Spin density          S         P         D         F
 ----              ------    ------------       ------    ------    ------    ------
 1 H               0.0000                       1.0000    0.0000    0.0000    0.0000

 Populations of individual BAS functions
 ----------------------------------------
 1 H           -0.0037  0.0405  0.0399  0.5670  0.3563  0.0000  0.0000  0.0000  0.0000  0.0000
                0.0000  0.0000  0.0000  0.0000  0.0000  0.0000  0.0000  0.0000  0.0000  0.0000
                0.0000  0.0000  0.0000

 Gross Charges per Atom (Z minus electrons)
 ==========================================
             0.0000
 Net Total:  0.00000000


 Atom-Atom Population Matrix (off-diagonal elements not doubled)
 ===============================================================

     1 :     1.0000



 =============
 Dipole Moment  ***  (Debye)  ***
 =============
  
 Vector   :         0.00000000      0.00000000      0.00000000
 Magnitude:         0.00000000

 This molecular dipole moment is calculated with analytic integration



 =========================================
 Quadrupole Moment (Buckingham convention)  ***  (a.u.)  ***
 =========================================
  
      quad-xx        quad-xy        quad-xz        quad-yy        quad-yz        quad-zz
      0.00000000     0.00000000     0.00000000     0.00000000     0.00000000     0.00000000

 This molecular quadrupole moment is calculated with analytic integration



 ===============================================================================
 Electrostatic potential at the Nuclei due to valence electrons and other nuclei
 ===============================================================================
  
         Atom                  Potential
         ----                  ---------
     1)   H                   0.94463948
 
 
 ========================
 No memory problems found
 ========================
 
 Maximum number of active allocate calls:         378
 
 *******************************************************************************

                             A D F   E X I T
 NORMAL TERMINATION



 =================
 Timing Statistics
 =================
  
 Total Used :                     CPU=        0.28      System=        0.10     Elapsed=        1.60

 Calls  Section                     ( Mean, Percentage )
 ---------------------------------------------------------------------------------------------------
     3  ><      ................      0.00    0.00             0.00    3.16             0.01    1.56
     1  INIT    ................      0.02    5.72             0.01    6.74             0.26   16.15
     1  GEOMET  ................      0.01    3.64             0.04   36.80             0.10    6.39
     1  INPUTA  ................      0.00    0.00             0.00    3.84             0.01    0.32
     1  MAINSY  ................      0.00    1.76             0.01   10.47             0.10    6.16
     1  SYMFIT  ................      0.00    0.07             0.00    0.38             0.00    0.04
     1  CORORT  ................      0.00    0.25             0.00    0.61             0.10    6.03
     1  SYMORB  ................      0.00    0.46             0.00    0.00             0.00    0.08
     1  FITINT  ................      0.01    3.07             0.00    0.00             0.11    6.71
     1  CLSMAT  ................      0.00    0.41             0.00    0.00             0.01    0.61
     1  ORTHON  ................      0.00    1.02             0.00    0.90             0.02    1.22
     1  GENPT   ................      0.01    3.87             0.00    1.62             0.06    3.73
     1  PTBAS   ................      0.00    1.21             0.00    1.02             0.02    1.34
     8  FOCKY   ................      0.02   49.03             0.00   15.33             0.03   17.28
     8  FOCKTR  ................      0.00    1.65             0.00    0.34             0.00    0.31
     8  FOCKNM  ................      0.00    0.14             0.00    0.00             0.00    0.03
     8  SDIIS   ................      0.00    3.30             0.00    1.11             0.04   21.50
     8  EMERGE  ................      0.00   10.58             0.00    7.55             0.01    5.14
     1  COREPS  ................      0.00    0.96             0.00    3.45             0.01    0.64
     1  POPAN   ................      0.00    0.43             0.00    3.06             0.01    0.63
     1  DEBYE   ................      0.00    0.39             0.00    0.47             0.01    0.72
     1  QMPOT   ................      0.00    1.60             0.00    0.23             0.00    0.30
     1  EXIT PROCEDURE .........      0.03   10.43             0.00    2.92             0.05    3.10


 Currently Open Files (EXIT00)
 ====================

 Unit    Access Format  Status   Type       Ident (file)
 -------------------------------------------------------
   3      SEQ    FORM   TRANSP  NORMAL      LOGFILE
                                          ( logfile )


 Buffered I/O statistics
 =======================
 Memory available:                     67108864
 Number of records fitting in memory:     16131
 Input :   1.3% of                         3604  *4k bytes
 Output:  10.6% of                         1855  *4k bytes
 Records from serial files evicted:           0
                    others evicted:           0
 Hash table lookups:      14887 with          0 conflicts (  0.00%)

 ***************************************************************************************************
 (LOGFILE)
 <Jan01-2013> <00:00:00>  DIRAC 2013.01  RunTime: Jan01-2013 00:00:00  Nodes: 1  Procs: 1
 <Jan01-2013> <00:00:00>  NORMAL TERMINATION
 <Jan01-2013> <00:00:00>  END
 <Jan01-2013> <00:00:01>  ADF 2013.01  RunTime: Jan01-2013 00:00:01  Nodes: 1  Procs: 1
 <Jan01-2013> <00:00:01>  Hydrogen (QZ, all electron, 5S 2P 2D)
 <Jan01-2013> <00:00:01>  RunType   : CREATE
 <Jan01-2013> <00:00:01>  Net Charge: 0 (Nuclei minus Electrons)
 <Jan01-2013> <00:00:01>  Symmetry  : ATOM
  Coordinates
    Atom         X           Y           Z   (Angstrom)
    1.H         0.000000    0.000000    0.000000
 <Jan01-2013> <00:00:01>  >>>> CORORT
 <Jan01-2013> <00:00:01>  >>>> FITINT
 <Jan01-2013> <00:00:01>  >>>> CLSMAT
 <Jan01-2013> <00:00:01>  >>>> ORTHON
 <Jan01-2013> <00:00:01>  >>>> GENPT
 <Jan01-2013> <00:00:01>  Acc.Num.Int.=  10.000
 <Jan01-2013> <00:00:01>  Block Length=  44
 <Jan01-2013> <00:00:01>  >>>> PTBAS
 <Jan01-2013> <00:00:01>  >>>> CYCLE
 <Jan01-2013> <00:00:01>    1
 <Jan01-2013> <00:00:01>    2  ErrMat   0.03803841  MaxEl  0.03078708
 <Jan01-2013> <00:00:01>    3  ErrMat   0.00916622  MaxEl -0.00901560
 <Jan01-2013> <00:00:01>    4  ErrMat   0.00035667  MaxEl  0.00031421
 <Jan01-2013> <00:00:02>    5  ErrMat   0.00000962  MaxEl -0.00000892
 <Jan01-2013> <00:00:02>    6  ErrMat   0.00000013  MaxEl  0.00000008
 <Jan01-2013> <00:00:02>    7  ErrMat   0.00000000  MaxEl  0.00000000
 <Jan01-2013> <00:00:02>  SCF converged
 <Jan01-2013> <00:00:02>    8  ErrMat   0.00000000  MaxEl  0.00000000
 <Jan01-2013> <00:00:02>   Solutions with partially occupied orbitals may not be
 <Jan01-2013> <00:00:02>   lowest in energy. You might consider lowering the
 <Jan01-2013> <00:00:02>   symmetry in the input and explicitly specifying integer
 <Jan01-2013> <00:00:02>   occupations. In that case always check that you obtain
 <Jan01-2013> <00:00:02>   an aufbau solution.
 <Jan01-2013> <00:00:02>  >>>> POPAN
 <Jan01-2013> <00:00:02>  >>>> DEBYE
 <Jan01-2013> <00:00:02>  NORMAL TERMINATION
 <Jan01-2013> <00:00:02>  END

 *******************************************************************************
 *                                                                             *
 *  -------------------------------------                                      *
 *   Amsterdam Density Functional  (ADF)         2013.01   April 2, 2013       *
 *  -------------------------------------                                      *
 *                                               Build 201304112106            *
 *                                                                             *
 *                                                                             *
 *                            =====================                            *
 *                            |                   |                            *
 *                            |     D I R A C     |                            *
 *                            |                   |                            *
 *                            =====================                            *
 *                                                                             *
 *                                                                             *
 *   Online information and documentation:  http://www.scm.com                 *
 *   E-mail:  support@scm.com   info@scm.com                                   *
 *                                                                             *
 *   Scientific publications using ADF results must be properly referenced     *
 *   See the User Manuals (or the web site) for recommended citations          *
 *   The terms and conditions of the End User License Agreement apply to       *
 *   the use of ADF, http://www.scm.com/Sales/LicAgreement.html                *
 *                                                                             *
 ****************************  x86_64_linux_intel  *****************************
 
 Licensed to: Prof. Cacier Hadad / University of Antioquia / Medellin / COLOMBIA
 SCM User ID: u15319
  
 DIRAC 2013.01  RunTime: Jan01-2013 00:00:03  Nodes: 1  Procs: 1

 Temporary files are created in /tmp/kid_0.faXwKV

1
 MERCURY ATOM all electron RELATIVISTIC, Point Nuc, A and c f
 N J RN H ZN XION ANUC CLIGHT
 5000   22100.00000000197.36710137 80.00000000  0.00000000  201.970625  0.1370360E+03
  PH   PHI     EPS        DEL        DELRVR
  0.30  0.30     2500.00  0.00001000  0.00001000
 IDIRC  NC1  NDEBU NPRIN  IPUN IRCOR IWCOR
   1   300     0     0     0     0     0
   XALPHA      XLATTER      RNUC
  0.70000000  0.00000000  0.00000000 Point Charge
   XN   XL   XJ      XE          XZ      XDELL
  1.0  0.0  0.5   -2600.000       2.000     0.00000
  2.0  0.0  0.5    -425.000       2.000     0.00000
  2.0  1.0  0.5    -425.000       2.000     0.00000
  2.0  1.0  1.5    -425.000       4.000     0.00000
  3.0  0.0  0.5    -100.000       2.000     0.00000
  3.0  1.0  0.5    -100.000       2.000     0.00000
  3.0  1.0  1.5    -100.000       4.000     0.00000
  3.0  2.0  1.5     -80.000       4.000     0.00000
  3.0  2.0  2.5     -80.000       6.000     0.00000
  4.0  0.0  0.5     -22.000       2.000     0.00000
  4.0  1.0  0.5     -20.000       2.000     0.00000
  4.0  1.0  1.5     -20.000       4.000     0.00000
  4.0  2.0  1.5     -11.000       4.000     0.00000
  4.0  2.0  2.5     -11.000       6.000     0.00000
  5.0  0.0  0.5      -3.000       2.000     0.00000
  5.0  1.0  0.5      -2.200       2.000     0.00000
  5.0  1.0  1.5      -2.200       4.000     0.00000
  4.0  3.0  2.5      -1.000       6.000     0.00000
  4.0  3.0  3.5      -1.000       8.000     0.00000
  5.0  2.0  1.5      -0.500       4.000     0.00000
  5.0  2.0  2.5      -0.500       6.000     0.00000
  6.0  0.0  0.5      -0.200       2.000     0.00000
 ICORP=  0  NPCL=  0  DEMP=0.00  PEPS=0.000000
 R(1)=  0.1000000E-08 D=  0.1005080E+01 RNUC=  0.0000000E+00
 converged at cycle   71  DENSITY AVERAGING    0.0786
  MAXIMUM ERROR IN R.V(R) IS   0.62886379E-05
 Q,EY,EV,EZ,ESUM,ETOT,RHO  0.800000E+02 -0.496572E+03 -0.348382E+05 -0.496228E+05 -0.121443E+05 -0.196607E+05  0.241251E-08


 DIRAC CALCULATION
1                    MERCURY ATOM all electron RELATIVISTIC, Point Nuc, A and c from libtc


 EXCHANGE COEFFICIENT=  0.7000000           TAIL CORRECTION=  0.           NUCLEAR RADIUS=  0.000E+00
0                       ORBITAL    N    L    J     ELECTRONS     EIGENVALUE                DELTA OF EIGENV.

                          1S1/2  1.0  0.0  0.5     2.000       -0.3050991E+04                 0.4924760E-04
                          2S1/2  2.0  0.0  0.5     2.000       -0.5405089E+03                 0.4254074E-04
                          2P1/2  2.0  1.0  0.5     2.000       -0.5187363E+03                 0.4411548E-04
                          2P3/2  2.0  1.0  1.5     4.000       -0.4471398E+03                 0.4301762E-04
                          3S1/2  3.0  0.0  0.5     2.000       -0.1282616E+03                 0.3041592E-04
                          3P1/2  3.0  1.0  0.5     2.000       -0.1184367E+03                 0.3137989E-04
                          3P3/2  3.0  1.0  1.5     4.000       -0.1025748E+03                 0.2995242E-04
                          3D3/2  3.0  2.0  1.5     4.000       -0.8626975E+02                 0.3222472E-04
                          3D5/2  3.0  2.0  2.5     6.000       -0.8286728E+02                 0.3175282E-04
                          4S1/2  4.0  0.0  0.5     2.000       -0.2816781E+02                 0.1668735E-04
                          4P1/2  4.0  1.0  0.5     2.000       -0.2395484E+02                 0.1669817E-04
                          4P3/2  4.0  1.0  1.5     4.000       -0.2011425E+02                 0.1516031E-04
                          4D3/2  4.0  2.0  1.5     4.000       -0.1321824E+02                 0.1506585E-04
                          4D5/2  4.0  2.0  2.5     6.000       -0.1250170E+02                 0.1460097E-04
                          5S1/2  5.0  0.0  0.5     2.000       -0.4322160E+01                 0.4190347E-05
                          5P1/2  5.0  1.0  0.5     2.000       -0.2925196E+01                 0.3615407E-05
                          5P3/2  5.0  1.0  1.5     4.000       -0.2244086E+01                 0.2893507E-05
                          4F5/2  4.0  3.0  2.5     6.000       -0.3611586E+01                 0.1388062E-04
                          4F7/2  4.0  3.0  3.5     8.000       -0.3456598E+01                 0.1362401E-04
                          5D3/2  5.0  2.0  1.5     4.000       -0.3813662E+00                 0.1502810E-05
                          5D5/2  5.0  2.0  2.5     6.000       -0.3130964E+00                 0.1345942E-05
                          6S1/2  6.0  0.0  0.5     2.000       -0.2314499E+00                 0.2838078E-06


                                        NUCLEAR CHARGE=   80.000000
                            INTEGRAL OF CHARGE DENSITY=   80.000000
                           SUM OF THE ORBITAL ENERGIES= -12144.2566
                                          TOTAL ENERGY= -19660.7046
                                        KINETIC ENERGY=  22693.9156
                             NUCLEAR ATTRACTION ENERGY= -49622.7822
                             ELECTRON REPULSION ENERGY=   7640.5911
                                       EXCHANGE ENERGY=   -372.4292

 *******************************************************************************

                             D I R A C   E X I T
 NORMAL TERMINATION



 =================
 Timing Statistics
 =================
  
 Total Used :                     CPU=        0.99      System=        0.05     Elapsed=        1.29

 Calls  Section                     ( Mean, Percentage )
 ---------------------------------------------------------------------------------------------------
     2  ><      ................      0.00    0.00             0.00    0.01             0.00    0.00
     1  EXIT PROCEDURE .........      0.99  100.00             0.05   99.99             1.29  100.00


 Currently Open Files (EXIT00)
 ====================

 Unit    Access Format  Status   Type       Ident (file)
 -------------------------------------------------------
   3      SEQ    FORM   TRANSP  NORMAL      LOGFILE
                                          ( logfile )


 Buffered I/O statistics
 =======================
 Memory available:                     67108864
 Number of records fitting in memory:     16131
 Input : 100.0% of                            0  *4k bytes
 Output: 100.0% of                            0  *4k bytes
 Records from serial files evicted:           0
                    others evicted:           0
 Hash table lookups:          0 with          0 conflicts (100.00%)
(INPUT FILE)
Create Hg   file=/home/andyzapa/adf2013.01/atomicdata/ZORA/QZ4P/Hg
 XC
 GGA PBE
End
relativistic ZORA
Corepotentials t12.rel
End Input

 *******************************************************************************
 *                                                                             *
 *  -------------------------------------                                      *
 *   Amsterdam Density Functional  (ADF)         2013.01   April 2, 2013       *
 *  -------------------------------------                                      *
 *                                               Build 201304112215            *
 *                                                                             *
 *                                                                             *
 *                              =================                              *
 *                              |               |                              *
 *                              |     A D F     |                              *
 *                              |               |                              *
 *                              =================                              *
 *                                                                             *
 *                                                                             *
 *   Online information and documentation:  http://www.scm.com                 *
 *   E-mail:  support@scm.com   info@scm.com                                   *
 *                                                                             *
 *   Scientific publications using ADF results must be properly referenced     *
 *   See the User Manuals (or the web site) for recommended citations          *
 *   The terms and conditions of the End User License Agreement apply to       *
 *   the use of ADF, http://www.scm.com/Sales/LicAgreement.html                *
 *                                                                             *
 ********************  x86_64_linux_intel / platform_mpi  **********************
 
 Licensed to: Prof. Cacier Hadad / University of Antioquia / Medellin / COLOMBIA
 SCM User ID: u15319
  
 ADF 2013.01  RunTime: Jan01-2013 00:00:04  Nodes: 1  Procs: 1

 Temporary files are created in /tmp/kid_0.fAqrAf

 Mercury (QZ, all electron, 22S 18P 12D 6F)



 ===========================
 A T T A C H E D   F I L E S
 ===========================
  
 CREATE - Data File:    /home/andyzapa/adf2013.01/atomicdata/ZORA/QZ4P/Hg
                        Mercury (QZ, all electron, 22S 18P 12D 6F)
 Core Potentials:
         file : t12.rel



 ===============================
 M O D E L   P A R A M E T E R S
 ===============================
  
 DENSITY FUNCTIONAL POTENTIAL (scf)
    LDA:                               PW92                                    == Not Default ==
    Gradient Corrections:              PBEc PBEx                               == Not Default ==

 SPIN  (restricted / unrestr.)
    Molecule:                          Restricted                               

 OTHER ASPECTS
    Relativistic Corrections:          scalar (ZORA,SAPA)                      == Not Default ==

    Nuclear Charge Density Model:      Point Charge Nuclei                                                                                                                                                                                     
    Core Treatment:                    Frozen Orbital(s)                        

    Hyperfine or Zeeman Interaction:   ---                                      



 =====================================
 S Y M M E T R Y ,   E L E C T R O N S
 =====================================
  
 Symmetry: ATOM

 Irreducible Representations, including subspecies
 -------------------------------------------------
 S
 P:x  P:y  P:z
 D:z2  D:x2-y2  D:xy  D:xz  D:yz
 F:z3  F:z  F:xyz  F:z2x  F:z2y  F:x  F:y


 Configuration of Valence Electrons
 ==================================

          Occupation Numbers
          -------------------------------------------------
 S        6*2
 P        4*6
 D        3*10
 F        14
          -------------------------------------------------

 Total:   80

 Net Charge: 0 (Nuclei minus Electrons)

 Preset values for MO occupations will be applied through SCF cycle no. 1000000
 Thereafter, the program will assign electrons to MOs that are spatially
 similar to the occupied MOs in a "reference" cycle ("KeepOrbitals").
 The reference cycle is always the PREVIOUS cycle: it will evolve with
 the SCF procedure.



 ================================
 (Slater-type)  F U N C T I O N S  ***  (Basis and Fit)  ***
 ================================
  

 Atom Type    1  (Hg)
 ==============

 Valence Basis Sets:  58
 -----------------------
   1 S10000.000000
   1 S 2240.000000
   1 S  710.000000
   1 S  275.000000
   1 S  128.000000
   1 S   86.900000
   2 S   75.050000
   2 S   43.500000
   2 S   36.450000
   3 S   30.000000
   3 S   23.400000
   3 S   18.750000
   4 S   17.700000
   4 S   12.400000
   4 S    9.550000
   5 S    7.400000
   5 S    5.350000
   5 S    4.000000
   6 S    3.350000
   6 S    2.350000
   6 S    1.600000
   6 S    1.100000
   2 P 2240.000000
   2 P  610.000000
   2 P  195.000000
   2 P   80.250000
   2 P   44.900000
   2 P   34.700000
   3 P   37.250000
   3 P   22.150000
   3 P   17.350000
   4 P   17.100000
   4 P   11.400000
   4 P    8.550000
   5 P    6.550000
   5 P    4.550000
   5 P    3.200000
   6 P    2.600000
   6 P    1.600000
   6 P    1.100000
   3 D   67.750000
   3 D   31.650000
   3 D   21.200000
   3 D   15.850000
   4 D   14.600000
   4 D    9.900000
   4 D    7.050000
   5 D    5.550000
   5 D    3.650000
   5 D    2.300000
   5 D    1.450000
   6 D    1.100000
   4 F   21.250000
   4 F   12.800000
   4 F    7.650000
   4 F    4.600000
   5 F    2.800000
   5 F    1.400000

 Charge Fitting Sets (for the computation of the Coulomb Potential): 112
 -----------------------------------------------------------------------
   1 S20000.000000
   1 S15231.077000
   1 S11599.286000
   1 S 8833.481000
   1 S 6727.171000
   1 S 5123.103000
   1 S 3901.519000
   1 S 2971.217000
   1 S 2262.742000
   1 S 1723.200000
   1 S 1312.309000
   1 S  999.394000
   1 S  761.093000
   1 S  579.613000
   1 S  441.406000
   1 S  336.155000
   1 S  256.000000
   1 S  163.209000
   2 S  192.250000
   2 S  135.734000
   3 S  140.326000
   3 S  104.583000
   3 S   77.944000
   4 S   76.659000
   4 S   59.158000
   4 S   45.651000
   5 S   43.812000
   5 S   34.659000
   5 S   27.417000
   6 S   25.958000
   6 S   20.924000
   6 S   16.867000
   7 S   15.840000
   7 S   12.961000
   7 S   10.605000
   8 S    9.910000
   8 S    8.208000
   8 S    6.798000
   8 S    5.630000
   9 S    5.245000
   9 S    4.389000
   9 S    3.672000
   9 S    3.073000
   9 S    2.571000
   9 S    2.151000
   9 S    1.800000
   2 P  172.900000
   2 P  110.068000
   3 P  103.214000
   4 P   93.440000
   4 P   66.775000
   5 P   59.543000
   5 P   43.944000
   6 P   38.916000
   6 P   29.431000
   7 P   25.986000
   7 P   20.036000
   8 P   17.675000
   8 P   13.845000
   8 P   10.845000
   9 P    9.569000
   9 P    7.596000
   9 P    6.029000
   9 P    4.786000
   9 P    3.799000
   9 P    3.016000
   9 P    2.394000
   9 P    1.900000
   3 D  143.850000
   3 D   92.054000
   4 D   78.387000
   5 D   66.192000
   6 D   55.782000
   6 D   40.226000
   7 D   33.926000
   7 D   25.026000
   8 D   21.151000
   8 D   15.894000
   8 D   11.943000
   9 D   10.121000
   9 D    7.724000
   9 D    5.895000
   9 D    4.499000
   9 D    3.434000
   9 D    2.621000
   9 D    2.000000
   4 F  140.800000
   5 F  111.481000
   6 F   88.596000
   6 F   60.382000
   7 F   48.237000
   7 F   33.762000
   8 F   27.124000
   8 F   19.402000
   8 F   13.879000
   9 F   11.213000
   9 F    8.168000
   9 F    5.950000
   9 F    4.334000
   9 F    3.157000
   9 F    2.300000
   5 G   57.700000
   6 G   44.465000
   6 G   29.419000
   7 G   22.842000
   7 G   15.553000
   8 G   12.166000
   8 G    8.480000
   9 G    6.682000
   9 G    4.750000
   9 G    3.376000
   9 G    2.400000


 BAS: List of all Elementary Cartesian Basis Functions
 =====================================================

 The numbering in the list below (to the right of the function characteristics) is referred
 to in print-outs of MO eigenvectors and Mulliken populations in the BAS representation
 (as contrasted to the SFO representation).

 Notes:
 1. The functions are characterized by a polynomial prefactor (powers of x,y,z and r) and
    an exponential decay factor alpha.
 2. Since the basis sets are specific for an atom TYPE, the individual functions occur on
    all atoms of that type.
 3. The word 'Core' in the left margin signals that it is a Core Function (CF) : not a
    degree of freedom in the valence set, but only used to ensure orthogonalization of
    the other valence basis functions on the frozen Core Orbitals.


 (power of) X  Y  Z  R     Alpha  on Atom
            ==========     =====     ==========

 Hg                                   1
                                  ---------------------------------------------------------------------------
            0  0  0  0 10000.000      1
            0  0  0  0  2240.000      2
            0  0  0  0   710.000      3
            0  0  0  0   275.000      4
            0  0  0  0   128.000      5
            0  0  0  0    86.900      6
            0  0  0  1    75.050      7
            0  0  0  1    43.500      8
            0  0  0  1    36.450      9
            0  0  0  2    30.000     10
            0  0  0  2    23.400     11
            0  0  0  2    18.750     12
            0  0  0  3    17.700     13
            0  0  0  3    12.400     14
            0  0  0  3     9.550     15
            0  0  0  4     7.400     16
            0  0  0  4     5.350     17
            0  0  0  4     4.000     18
            0  0  0  5     3.350     19
            0  0  0  5     2.350     20
            0  0  0  5     1.600     21
            0  0  0  5     1.100     22
            1  0  0  0  2240.000     23
            0  1  0  0  2240.000     24
            0  0  1  0  2240.000     25
            1  0  0  0   610.000     26
            0  1  0  0   610.000     27
            0  0  1  0   610.000     28
            1  0  0  0   195.000     29
            0  1  0  0   195.000     30
            0  0  1  0   195.000     31
            1  0  0  0    80.250     32
            0  1  0  0    80.250     33
            0  0  1  0    80.250     34
            1  0  0  0    44.900     35
            0  1  0  0    44.900     36
            0  0  1  0    44.900     37
            1  0  0  0    34.700     38
            0  1  0  0    34.700     39
            0  0  1  0    34.700     40
            1  0  0  1    37.250     41
            0  1  0  1    37.250     42
            0  0  1  1    37.250     43
            1  0  0  1    22.150     44
            0  1  0  1    22.150     45
            0  0  1  1    22.150     46
            1  0  0  1    17.350     47
            0  1  0  1    17.350     48
            0  0  1  1    17.350     49
            1  0  0  2    17.100     50
            0  1  0  2    17.100     51
            0  0  1  2    17.100     52
            1  0  0  2    11.400     53
            0  1  0  2    11.400     54
            0  0  1  2    11.400     55
            1  0  0  2     8.550     56
            0  1  0  2     8.550     57
            0  0  1  2     8.550     58
            1  0  0  3     6.550     59
            0  1  0  3     6.550     60
            0  0  1  3     6.550     61
            1  0  0  3     4.550     62
            0  1  0  3     4.550     63
            0  0  1  3     4.550     64
            1  0  0  3     3.200     65
            0  1  0  3     3.200     66
            0  0  1  3     3.200     67
            1  0  0  4     2.600     68
            0  1  0  4     2.600     69
            0  0  1  4     2.600     70
            1  0  0  4     1.600     71
            0  1  0  4     1.600     72
            0  0  1  4     1.600     73
            1  0  0  4     1.100     74
            0  1  0  4     1.100     75
            0  0  1  4     1.100     76
            2  0  0  0    67.750     77
            1  1  0  0    67.750     78
            1  0  1  0    67.750     79
            0  2  0  0    67.750     80
            0  1  1  0    67.750     81
            0  0  2  0    67.750     82
            2  0  0  0    31.650     83
            1  1  0  0    31.650     84
            1  0  1  0    31.650     85
            0  2  0  0    31.650     86
            0  1  1  0    31.650     87
            0  0  2  0    31.650     88
            2  0  0  0    21.200     89
            1  1  0  0    21.200     90
            1  0  1  0    21.200     91
            0  2  0  0    21.200     92
            0  1  1  0    21.200     93
            0  0  2  0    21.200     94
            2  0  0  0    15.850     95
            1  1  0  0    15.850     96
            1  0  1  0    15.850     97
            0  2  0  0    15.850     98
            0  1  1  0    15.850     99
            0  0  2  0    15.850    100
            2  0  0  1    14.600    101
            1  1  0  1    14.600    102
            1  0  1  1    14.600    103
            0  2  0  1    14.600    104
            0  1  1  1    14.600    105
            0  0  2  1    14.600    106
            2  0  0  1     9.900    107
            1  1  0  1     9.900    108
            1  0  1  1     9.900    109
            0  2  0  1     9.900    110
            0  1  1  1     9.900    111
            0  0  2  1     9.900    112
            2  0  0  1     7.050    113
            1  1  0  1     7.050    114
            1  0  1  1     7.050    115
            0  2  0  1     7.050    116
            0  1  1  1     7.050    117
            0  0  2  1     7.050    118
            2  0  0  2     5.550    119
            1  1  0  2     5.550    120
            1  0  1  2     5.550    121
            0  2  0  2     5.550    122
            0  1  1  2     5.550    123
            0  0  2  2     5.550    124
            2  0  0  2     3.650    125
            1  1  0  2     3.650    126
            1  0  1  2     3.650    127
            0  2  0  2     3.650    128
            0  1  1  2     3.650    129
            0  0  2  2     3.650    130
            2  0  0  2     2.300    131
            1  1  0  2     2.300    132
            1  0  1  2     2.300    133
            0  2  0  2     2.300    134
            0  1  1  2     2.300    135
            0  0  2  2     2.300    136
            2  0  0  2     1.450    137
            1  1  0  2     1.450    138
            1  0  1  2     1.450    139
            0  2  0  2     1.450    140
            0  1  1  2     1.450    141
            0  0  2  2     1.450    142
            2  0  0  3     1.100    143
            1  1  0  3     1.100    144
            1  0  1  3     1.100    145
            0  2  0  3     1.100    146
            0  1  1  3     1.100    147
            0  0  2  3     1.100    148
            3  0  0  0    21.250    149
            2  1  0  0    21.250    150
            2  0  1  0    21.250    151
            1  2  0  0    21.250    152
            1  1  1  0    21.250    153
            1  0  2  0    21.250    154
            0  3  0  0    21.250    155
            0  2  1  0    21.250    156
            0  1  2  0    21.250    157
            0  0  3  0    21.250    158
            3  0  0  0    12.800    159
            2  1  0  0    12.800    160
            2  0  1  0    12.800    161
            1  2  0  0    12.800    162
            1  1  1  0    12.800    163
            1  0  2  0    12.800    164
            0  3  0  0    12.800    165
            0  2  1  0    12.800    166
            0  1  2  0    12.800    167
            0  0  3  0    12.800    168
            3  0  0  0     7.650    169
            2  1  0  0     7.650    170
            2  0  1  0     7.650    171
            1  2  0  0     7.650    172
            1  1  1  0     7.650    173
            1  0  2  0     7.650    174
            0  3  0  0     7.650    175
            0  2  1  0     7.650    176
            0  1  2  0     7.650    177
            0  0  3  0     7.650    178
            3  0  0  0     4.600    179
            2  1  0  0     4.600    180
            2  0  1  0     4.600    181
            1  2  0  0     4.600    182
            1  1  1  0     4.600    183
            1  0  2  0     4.600    184
            0  3  0  0     4.600    185
            0  2  1  0     4.600    186
            0  1  2  0     4.600    187
            0  0  3  0     4.600    188
            3  0  0  1     2.800    189
            2  1  0  1     2.800    190
            2  0  1  1     2.800    191
            1  2  0  1     2.800    192
            1  1  1  1     2.800    193
            1  0  2  1     2.800    194
            0  3  0  1     2.800    195
            0  2  1  1     2.800    196
            0  1  2  1     2.800    197
            0  0  3  1     2.800    198
            3  0  0  1     1.400    199
            2  1  0  1     1.400    200
            2  0  1  1     1.400    201
            1  2  0  1     1.400    202
            1  1  1  1     1.400    203
            1  0  2  1     1.400    204
            0  3  0  1     1.400    205
            0  2  1  1     1.400    206
            0  1  2  1     1.400    207
            0  0  3  1     1.400    208

 Total number of charge fitting functions (nprimf)       535
 Total number of Cartesian basis functions (naos)        208
 Total number of Cartesian core functions  (ncos)          0



 BAS: List of all Elementary Cartesian Basis Functions
 =====================================================

 The numbering in the list below (to the right of the function characteristics) is referred
 to in print-outs of MO eigenvectors and Mulliken populations in the BAS representation
 (as contrasted to the SFO representation).

 Notes:
 1. The functions are characterized by a polynomial prefactor (powers of x,y,z and r) and
    an exponential decay factor alpha.
 2. Since the basis sets are specific for an atom TYPE, the individual functions occur on
    all atoms of that type.
 3. The word 'Core' in the left margin signals that it is a Core Function (CF) : not a
    degree of freedom in the valence set, but only used to ensure orthogonalization of
    the other valence basis functions on the frozen Core Orbitals.


 (power of) X  Y  Z  R     Alpha  on Atom
            ==========     =====     ==========

 Hg                                   1
                                  ---------------------------------------------------------------------------
            0  0  0  0 10000.000      1
            0  0  0  0  2240.000      2
            0  0  0  0   710.000      3
            0  0  0  0   275.000      4
            0  0  0  0   128.000      5
            0  0  0  0    86.900      6
            0  0  0  1    75.050      7
            0  0  0  1    43.500      8
            0  0  0  1    36.450      9
            0  0  0  2    30.000     10
            0  0  0  2    23.400     11
            0  0  0  2    18.750     12
            0  0  0  3    17.700     13
            0  0  0  3    12.400     14
            0  0  0  3     9.550     15
            0  0  0  4     7.400     16
            0  0  0  4     5.350     17
            0  0  0  4     4.000     18
            0  0  0  5     3.350     19
            0  0  0  5     2.350     20
            0  0  0  5     1.600     21
            0  0  0  5     1.100     22
            1  0  0  0  2240.000     23
            0  1  0  0  2240.000     24
            0  0  1  0  2240.000     25
            1  0  0  0   610.000     26
            0  1  0  0   610.000     27
            0  0  1  0   610.000     28
            1  0  0  0   195.000     29
            0  1  0  0   195.000     30
            0  0  1  0   195.000     31
            1  0  0  0    80.250     32
            0  1  0  0    80.250     33
            0  0  1  0    80.250     34
            1  0  0  0    44.900     35
            0  1  0  0    44.900     36
            0  0  1  0    44.900     37
            1  0  0  0    34.700     38
            0  1  0  0    34.700     39
            0  0  1  0    34.700     40
            1  0  0  1    37.250     41
            0  1  0  1    37.250     42
            0  0  1  1    37.250     43
            1  0  0  1    22.150     44
            0  1  0  1    22.150     45
            0  0  1  1    22.150     46
            1  0  0  1    17.350     47
            0  1  0  1    17.350     48
            0  0  1  1    17.350     49
            1  0  0  2    17.100     50
            0  1  0  2    17.100     51
            0  0  1  2    17.100     52
            1  0  0  2    11.400     53
            0  1  0  2    11.400     54
            0  0  1  2    11.400     55
            1  0  0  2     8.550     56
            0  1  0  2     8.550     57
            0  0  1  2     8.550     58
            1  0  0  3     6.550     59
            0  1  0  3     6.550     60
            0  0  1  3     6.550     61
            1  0  0  3     4.550     62
            0  1  0  3     4.550     63
            0  0  1  3     4.550     64
            1  0  0  3     3.200     65
            0  1  0  3     3.200     66
            0  0  1  3     3.200     67
            1  0  0  4     2.600     68
            0  1  0  4     2.600     69
            0  0  1  4     2.600     70
            1  0  0  4     1.600     71
            0  1  0  4     1.600     72
            0  0  1  4     1.600     73
            1  0  0  4     1.100     74
            0  1  0  4     1.100     75
            0  0  1  4     1.100     76
            2  0  0  0    67.750     77
            1  1  0  0    67.750     78
            1  0  1  0    67.750     79
            0  2  0  0    67.750     80
            0  1  1  0    67.750     81
            0  0  2  0    67.750     82
            2  0  0  0    31.650     83
            1  1  0  0    31.650     84
            1  0  1  0    31.650     85
            0  2  0  0    31.650     86
            0  1  1  0    31.650     87
            0  0  2  0    31.650     88
            2  0  0  0    21.200     89
            1  1  0  0    21.200     90
            1  0  1  0    21.200     91
            0  2  0  0    21.200     92
            0  1  1  0    21.200     93
            0  0  2  0    21.200     94
            2  0  0  0    15.850     95
            1  1  0  0    15.850     96
            1  0  1  0    15.850     97
            0  2  0  0    15.850     98
            0  1  1  0    15.850     99
            0  0  2  0    15.850    100
            2  0  0  1    14.600    101
            1  1  0  1    14.600    102
            1  0  1  1    14.600    103
            0  2  0  1    14.600    104
            0  1  1  1    14.600    105
            0  0  2  1    14.600    106
            2  0  0  1     9.900    107
            1  1  0  1     9.900    108
            1  0  1  1     9.900    109
            0  2  0  1     9.900    110
            0  1  1  1     9.900    111
            0  0  2  1     9.900    112
            2  0  0  1     7.050    113
            1  1  0  1     7.050    114
            1  0  1  1     7.050    115
            0  2  0  1     7.050    116
            0  1  1  1     7.050    117
            0  0  2  1     7.050    118
            2  0  0  2     5.550    119
            1  1  0  2     5.550    120
            1  0  1  2     5.550    121
            0  2  0  2     5.550    122
            0  1  1  2     5.550    123
            0  0  2  2     5.550    124
            2  0  0  2     3.650    125
            1  1  0  2     3.650    126
            1  0  1  2     3.650    127
            0  2  0  2     3.650    128
            0  1  1  2     3.650    129
            0  0  2  2     3.650    130
            2  0  0  2     2.300    131
            1  1  0  2     2.300    132
            1  0  1  2     2.300    133
            0  2  0  2     2.300    134
            0  1  1  2     2.300    135
            0  0  2  2     2.300    136
            2  0  0  2     1.450    137
            1  1  0  2     1.450    138
            1  0  1  2     1.450    139
            0  2  0  2     1.450    140
            0  1  1  2     1.450    141
            0  0  2  2     1.450    142
            2  0  0  3     1.100    143
            1  1  0  3     1.100    144
            1  0  1  3     1.100    145
            0  2  0  3     1.100    146
            0  1  1  3     1.100    147
            0  0  2  3     1.100    148
            3  0  0  0    21.250    149
            2  1  0  0    21.250    150
            2  0  1  0    21.250    151
            1  2  0  0    21.250    152
            1  1  1  0    21.250    153
            1  0  2  0    21.250    154
            0  3  0  0    21.250    155
            0  2  1  0    21.250    156
            0  1  2  0    21.250    157
            0  0  3  0    21.250    158
            3  0  0  0    12.800    159
            2  1  0  0    12.800    160
            2  0  1  0    12.800    161
            1  2  0  0    12.800    162
            1  1  1  0    12.800    163
            1  0  2  0    12.800    164
            0  3  0  0    12.800    165
            0  2  1  0    12.800    166
            0  1  2  0    12.800    167
            0  0  3  0    12.800    168
            3  0  0  0     7.650    169
            2  1  0  0     7.650    170
            2  0  1  0     7.650    171
            1  2  0  0     7.650    172
            1  1  1  0     7.650    173
            1  0  2  0     7.650    174
            0  3  0  0     7.650    175
            0  2  1  0     7.650    176
            0  1  2  0     7.650    177
            0  0  3  0     7.650    178
            3  0  0  0     4.600    179
            2  1  0  0     4.600    180
            2  0  1  0     4.600    181
            1  2  0  0     4.600    182
            1  1  1  0     4.600    183
            1  0  2  0     4.600    184
            0  3  0  0     4.600    185
            0  2  1  0     4.600    186
            0  1  2  0     4.600    187
            0  0  3  0     4.600    188
            3  0  0  1     2.800    189
            2  1  0  1     2.800    190
            2  0  1  1     2.800    191
            1  2  0  1     2.800    192
            1  1  1  1     2.800    193
            1  0  2  1     2.800    194
            0  3  0  1     2.800    195
            0  2  1  1     2.800    196
            0  1  2  1     2.800    197
            0  0  3  1     2.800    198
            3  0  0  1     1.400    199
            2  1  0  1     1.400    200
            2  0  1  1     1.400    201
            1  2  0  1     1.400    202
            1  1  1  1     1.400    203
            1  0  2  1     1.400    204
            0  3  0  1     1.400    205
            0  2  1  1     1.400    206
            0  1  2  1     1.400    207
            0  0  3  1     1.400    208
1
 ***************************************************************************************************



                                              ***********************
                                              *  T E C H N I C A L  *
                                              ***********************
  



 =============================================================
 P A R A L L E L I Z A T I O N  and  V E C T O R I Z A T I O N
 =============================================================
  
 Nr of parallel processes:                                1
 Maximum vector length in NumInt loops:                 128



 ===============
 I O  vs.  C P U  ***  (store numerical data on disk or recalculate)  ***
 ===============
  
 Basis functions:   recalculate when needed
 Fit functions:     recalculate when needed

 IO buffersize (Mb):                                     64.000000



 =====================
 S C F   U P D A T E S
 =====================
  
 Max. nr. of cycles:                               100
 Convergence criterion:                              0.0000000100
   secondary criterion:                              0.0000000100

 Mix parameter (when DIIS does not apply):           0.2000000000
 Special mix parameter for the first cycle:          1.0000000000


 DIIS (Direct Inversion in Iteration Space)
    Replace damping when SCF Error is below:         0.5000000000
    Apply anyway after SCF cycle:
                                                     5
    (Max.) nr. of expansion vectors:                10

    Upperbound on expansion coefficients:            5.0000000000
    (when exceeded, IterationSpace is re-built)
    2nd Upperbound on coefficients:                 25.0000000000
    (when exceeded, simple damping will be used)
 Automatic ElectronSmearing (in case of problematic SCF convergence) disabled



 =================
 P R E C I S I O N  ***  (General: NumInt, NeglectFunctionTails, ...)  ***
 =================
  

 NumInt:           Target precision:                10.0000000000
 -------           Initial precision:               10.0000000000
                   Min. precision (optimization):   10.0000000000

 Neglect Functions:          Basis functions:        0.1000000000E-11
 ------------------          Fit functions:          0.1000000000E-11



 ===========================
 L I N E A R   S C A L I N G
 ===========================
  

 Cut-off radii density fit:                        0.1000000000E-13
 Overlap cut-off criterion AO matrix elements:     0.1000000000E-11
 Cut-offs for Coulomb potential and fitted density:0.1000000000E-13
 Cut-off criterion for Coulomb multipole terms:    0.1000000000E-13
 Progressive Convergence parameter:                 0.000000000    
1
 ***************************************************************************************************



                                            ***************************
                                            *  C O M P U T A T I O N  *
                                            ***************************
  

 Number of elements of the density matrix on this node (used, total):     21736     21736



 ====================================================
 Numerical Integration : Voronoi Polyhedra (Te Velde)
 ====================================================
  
 General Accuracy Parameter :                         10.00

 Symmetry used in the points section:  ATOM  


 Summary of the Symmetry Unique Points:
 --------------------------------------
    Nr. of used Symmetry Operators                     1

    Points in the Atomic Spheres                     156
    Points in the Atomic Polyhedra                     0
    Points in the Outer Region                         0
    ----------------------------------------------------
    Total                                            156

    Sum of Weights                                270838.223067

 Total nr. of points:        156
 Nr. of blocks:                2
 Block length:                78
 Nr. of dummy points:          0


 Test of Precision of the Numerical Integration Grid
 ===================================================

 Integral of the Total Core Density:                   0.00000000000000



 =====
 S C F
 =====
  

 CYCLE    1
 orbitals (Q,E):
 ---------------
 S :1...16           ( 2.00 -3486.8517)  ( 2.00  -894.0752)  ( 2.00  -387.8928)  ( 2.00  -214.3573)
                     ( 2.00  -135.5231)  ( 2.00   -93.2904)  ( 0.00   -68.0469)  ( 0.00   -51.5344)
                     ( 0.00   -39.5790)  ( 0.00   -30.2345)  ( 0.00   -23.0701)  ( 0.00   -18.7018)
                     ( 0.00   -14.6711)  ( 0.00   -10.0974)  ( 0.00   119.7641)  ( 0.00   619.8843)
 P :1...14           ( 6.00  -831.8344)  ( 6.00  -369.4182)  ( 6.00  -206.6511)  ( 6.00  -131.6100)
                     ( 0.00   -90.9733)  ( 0.00   -66.2252)  ( 0.00   -49.3433)  ( 0.00   -37.1659)
                     ( 0.00   -29.3305)  ( 0.00   -22.9841)  ( 0.00   -16.2507)  ( 0.00   -10.6216)
                     ( 0.00   136.1949)  ( 0.00   793.9664)
 D :1...12           (10.00  -358.6873)  (10.00  -202.1257)  (10.00  -129.3037)  ( 0.00   -89.5813)
                     ( 0.00   -65.4451)  ( 0.00   -49.7472)  ( 0.00   -37.4998)  ( 0.00   -26.4196)
                     ( 0.00   -17.5041)  ( 0.00   -11.0198)  ( 0.00   105.8301)  ( 0.00  1412.2468)
 F :1...6            (14.00  -200.2743)  ( 0.00  -127.9568)  ( 0.00   -88.1643)  ( 0.00   -59.5219)
                     ( 0.00   -35.7436)  ( 0.00   -18.8406)

 CYCLE    2
 d-Pmat  mean:  0.29E+02
 imax=     11: -0.49E+03
 orbitals (Q,E):
 ---------------
 S :1...7            ( 2.00 -2906.7975)  ( 2.00  -410.1942)  ( 2.00   -42.7646)  ( 2.00    -0.0247)
                     ( 2.00     0.0953)  ( 2.00     0.3050)  ( 0.00     0.8400)
 P :1...5            ( 6.00  -332.3948)  ( 6.00   -22.9003)  ( 6.00     0.0215)  ( 6.00     0.2336)
                     ( 0.00     0.7356)
 D :1...4            (10.00     0.0834)  (10.00     0.4038)  (10.00     1.2409)  ( 0.00     1.8801)
 F :1...2            (14.00     0.4991)  ( 0.00     2.5143)

 CYCLE    3
 d-Pmat  mean:  0.57E+01
 imax=     12: -0.13E+03
 orbitals (Q,E):
 ---------------
 S :1...7            ( 2.00 -2968.4624)  ( 2.00  -469.3293)  ( 2.00   -85.6833)  ( 2.00   -16.7448)
                     ( 2.00    -5.1887)  ( 2.00    -1.6529)  ( 0.00    -0.4132)
 P :1...5            ( 6.00  -392.5207)  ( 6.00   -64.7284)  ( 6.00   -11.9132)  ( 6.00    -3.7415)
                     ( 0.00    -1.1105)
 D :1...4            (10.00   -39.2654)  (10.00    -6.2561)  (10.00    -1.9181)  ( 0.00    -0.4454)
 F :1...2            (14.00    -2.0007)  ( 0.00    -0.3720)

 CYCLE    4
 d-Pmat  mean:  0.19E+00
 imax=     19: -0.11E+01
 orbitals (Q,E):
 ---------------
 S :1...7            ( 2.00 -2996.7561)  ( 2.00  -495.1136)  ( 2.00  -102.9221)  ( 2.00   -23.3322)
                     ( 2.00    -6.4773)  ( 2.00    -1.7786)  ( 0.00    -0.3974)
 P :1...5            ( 6.00  -418.9153)  ( 6.00   -81.6649)  ( 6.00   -17.4352)  ( 6.00    -4.6827)
                     ( 0.00    -1.1823)
 D :1...4            (10.00   -56.8376)  (10.00   -10.2070)  (10.00    -2.4766)  ( 0.00    -0.4848)
 F :1...2            (14.00    -3.2703)  ( 0.00    -0.5460)

 CYCLE    5
 d-Pmat  mean:  0.90E+00
 imax=     49:  0.11E+02
 orbitals (Q,E):
 ---------------
 S :1...7            ( 2.00 -3088.9751)  ( 2.00  -578.8035)  ( 2.00  -159.2037)  ( 2.00   -48.0970)
                     ( 2.00   -13.4103)  ( 2.00    -3.6387)  ( 0.00    -0.9977)
 P :1...5            ( 6.00  -504.7013)  ( 6.00  -137.6309)  ( 6.00   -40.2757)  ( 6.00   -10.5528)
                     ( 0.00    -2.7315)
 D :1...4            (10.00  -116.3159)  (10.00   -31.7093)  (10.00    -7.1980)  ( 0.00    -1.6466)
 F :1...2            (14.00   -23.0120)  ( 0.00    -3.7037)

 CYCLE    6
 d-Pmat  mean:  0.79E+00
 imax=     49: -0.95E+01
 orbitals (Q,E):
 ---------------
 S :1...7            ( 2.00 -3046.5982)  ( 2.00  -536.1078)  ( 2.00  -123.6421)  ( 2.00   -24.2520)
                     ( 2.00    -2.1408)  ( 2.00    -0.1591)  ( 0.00     0.0833)
 P :1...5            ( 6.00  -461.5144)  ( 6.00  -102.1063)  ( 6.00   -17.2794)  ( 6.00    -0.7702)
                     ( 0.00    -0.0126)
 D :1...4            (10.00   -79.4949)  (10.00    -9.0007)  (10.00     0.0497)  ( 0.00     0.1923)
 F :1...2            (14.00     0.1072)  ( 0.00     0.3242)

 CYCLE    7
 d-Pmat  mean:  0.26E+00
 imax=     11: -0.30E+01
 orbitals (Q,E):
 ---------------
 S :1...7            ( 2.00 -3057.8366)  ( 2.00  -548.5514)  ( 2.00  -136.2379)  ( 2.00   -35.3172)
                     ( 2.00    -9.6413)  ( 2.00    -2.9354)  ( 0.00    -0.7890)
 P :1...5            ( 6.00  -473.9478)  ( 6.00  -114.6875)  ( 6.00   -28.1445)  ( 6.00    -7.4080)
                     ( 0.00    -2.1550)
 D :1...4            (10.00   -92.1466)  (10.00   -19.7014)  (10.00    -4.6933)  ( 0.00    -1.1945)
 F :1...2            (14.00   -10.3807)  ( 0.00    -2.0070)

 CYCLE    8
 d-Pmat  mean:  0.17E+00
 imax=     18: -0.34E+01
 orbitals (Q,E):
 ---------------
 S :1...7            ( 2.00 -3050.0133)  ( 2.00  -540.1419)  ( 2.00  -127.9614)  ( 2.00   -27.9559)
                     ( 2.00    -4.4070)  ( 2.00    -0.5065)  ( 0.00    -0.0024)
 P :1...5            ( 6.00  -465.5179)  ( 6.00  -106.4153)  ( 6.00   -20.9074)  ( 6.00    -2.5906)
                     ( 0.00    -0.1901)
 D :1...4            (10.00   -83.8168)  (10.00   -12.5628)  (10.00    -0.6282)  ( 0.00     0.0576)
 F :1...2            (14.00    -3.3206)  ( 0.00     0.2593)

 CYCLE    9
 d-Pmat  mean:  0.22E-01
 imax=     19: -0.32E+00
 orbitals (Q,E):
 ---------------
 S :1...7            ( 2.00 -3050.1319)  ( 2.00  -540.2529)  ( 2.00  -128.0259)  ( 2.00   -27.9441)
                     ( 2.00    -4.0766)  ( 2.00    -0.1469)  ( 0.00     0.0639)
 P :1...5            ( 6.00  -465.6320)  ( 6.00  -106.4795)  ( 6.00   -20.8825)  ( 6.00    -2.1925)
                     ( 0.00     0.0164)
 D :1...4            (10.00   -83.8871)  (10.00   -12.5243)  (10.00    -0.1637)  ( 0.00     0.1159)
 F :1...2            (14.00    -3.2569)  ( 0.00     0.4246)

 CYCLE   10
 d-Pmat  mean:  0.76E-02
 imax=     21: -0.76E-01
 orbitals (Q,E):
 ---------------
 S :1...7            ( 2.00 -3050.3395)  ( 2.00  -540.4748)  ( 2.00  -128.2476)  ( 2.00   -28.1820)
                     ( 2.00    -4.3173)  ( 2.00    -0.2348)  ( 0.00     0.0352)
 P :1...5            ( 6.00  -465.8547)  ( 6.00  -106.7017)  ( 6.00   -21.1222)  ( 6.00    -2.4217)
                     ( 0.00    -0.0256)
 D :1...4            (10.00   -84.1091)  (10.00   -12.7653)  (10.00    -0.3449)  ( 0.00     0.0915)
 F :1...2            (14.00    -3.4973)  ( 0.00     0.3825)

 CYCLE   11
 d-Pmat  mean:  0.79E-03
 imax=     14:  0.93E-02
 orbitals (Q,E):
 ---------------
 S :1...7            ( 2.00 -3050.3912)  ( 2.00  -540.5303)  ( 2.00  -128.2995)  ( 2.00   -28.2160)
                     ( 2.00    -4.3357)  ( 2.00    -0.2514)  ( 0.00     0.0261)
 P :1...5            ( 6.00  -465.9102)  ( 6.00  -106.7533)  ( 6.00   -21.1544)  ( 6.00    -2.4402)
                     ( 0.00    -0.0383)
 D :1...4            (10.00   -84.1619)  (10.00   -12.7963)  (10.00    -0.3636)  ( 0.00     0.0822)
 F :1...2            (14.00    -3.5278)  ( 0.00     0.3696)

 CYCLE   12
 d-Pmat  mean:  0.25E-03
 imax=     49: -0.27E-02
 orbitals (Q,E):
 ---------------
 S :1...7            ( 2.00 -3050.3907)  ( 2.00  -540.5290)  ( 2.00  -128.2982)  ( 2.00   -28.2170)
                     ( 2.00    -4.3364)  ( 2.00    -0.2504)  ( 0.00     0.0269)
 P :1...5            ( 6.00  -465.9090)  ( 6.00  -106.7520)  ( 6.00   -21.1557)  ( 6.00    -2.4404)
                     ( 0.00    -0.0376)
 D :1...4            (10.00   -84.1605)  (10.00   -12.7976)  (10.00    -0.3629)  ( 0.00     0.0829)
 F :1...2            (14.00    -3.5289)  ( 0.00     0.3703)

 CYCLE   13
 d-Pmat  mean:  0.14E-04
 imax=     20: -0.27E-03
 orbitals (Q,E):
 ---------------
 S :1...7            ( 2.00 -3050.3904)  ( 2.00  -540.5287)  ( 2.00  -128.2978)  ( 2.00   -28.2167)
                     ( 2.00    -4.3361)  ( 2.00    -0.2502)  ( 0.00     0.0270)
 P :1...5            ( 6.00  -465.9087)  ( 6.00  -106.7516)  ( 6.00   -21.1553)  ( 6.00    -2.4401)
                     ( 0.00    -0.0374)
 D :1...4            (10.00   -84.1602)  (10.00   -12.7972)  (10.00    -0.3626)  ( 0.00     0.0830)
[...]
 <Jan01-2013> <03:51:04>  >>>> DEBYE
 <Jan01-2013> <03:51:04>  >>>> AMETS
 <Jan01-2013> <03:51:04>  >>>> ENGRAD
  Coordinates in Frequency Displacement 69
    Atom         X           Y           Z   (Angstrom)
    1.H         3.539651   -2.904989   -0.053060
    2.O         3.251857   -2.115220    0.447235
    3.H         4.045323   -1.651867    0.782561
    4.H        -3.265482   -0.152087    0.023069
    5.O        -2.156423    0.080004    0.576310
    6.H        -2.191949    0.747856    1.286524
    7.H        -4.783189    0.334006   -0.851940
    8.O        -4.264716   -0.422834   -0.512710
    9.H        -4.862585   -1.009673   -0.007713
   10.H         1.881093   -0.178666   -1.362240
   11.O         1.562471   -0.763246   -0.649191
   12.H         2.465021   -1.455369   -0.092343
   13.Hg       -0.286169   -0.293626   -0.036618
 <Jan01-2013> <03:52:03>  >>>> CORORT
 <Jan01-2013> <03:52:03>  >>>> FITINT
 <Jan01-2013> <03:52:03>  >>>> CLSMAT
 <Jan01-2013> <03:52:06>  >>>> ORTHON
 <Jan01-2013> <03:52:07>  >>>> GENPT
 <Jan01-2013> <03:52:07>  Acc.Num.Int.=   6.000
 <Jan01-2013> <03:52:07>  Reusing previous cell geometry for gradient smoothing.
 <Jan01-2013> <03:52:07>  Block Length= 128
 <Jan01-2013> <03:52:07>  >>>> PTBAS
 <Jan01-2013> <03:52:50>  >>>> CYCLE
 <Jan01-2013> <03:52:53>    1
 <Jan01-2013> <03:53:00>    2  ErrMat   0.01622591  MaxEl  0.00262471
 <Jan01-2013> <03:53:04>    3  ErrMat   0.00725126  MaxEl  0.00122182
 <Jan01-2013> <03:53:08>    4  ErrMat   0.00585177  MaxEl  0.00080545
 <Jan01-2013> <03:53:13>    5  ErrMat   0.00252002  MaxEl  0.00032194
 <Jan01-2013> <03:53:17>    6  ErrMat   0.00049423  MaxEl -0.00007278
 <Jan01-2013> <03:53:22>    7  ErrMat   0.00023704  MaxEl  0.00003092
 <Jan01-2013> <03:53:27>    8  ErrMat   0.00004923  MaxEl -0.00000570
 <Jan01-2013> <03:53:32>    9  ErrMat   0.00001125  MaxEl  0.00000172
 <Jan01-2013> <03:53:37>   10  ErrMat   0.00000170  MaxEl -0.00000015
 <Jan01-2013> <03:53:39>  SCF converged
 <Jan01-2013> <03:53:41>   11  ErrMat   0.00000085  MaxEl -0.00000007
 <Jan01-2013> <03:53:46>  >>>> TOTEN
 <Jan01-2013> <03:53:52>  >>>> POPAN
 <Jan01-2013> <03:53:52>  >>>> DEBYE
 <Jan01-2013> <03:53:53>  >>>> AMETS
 <Jan01-2013> <03:53:53>  >>>> ENGRAD
  Coordinates in Frequency Displacement 70
    Atom         X           Y           Z   (Angstrom)
    1.H         3.539651   -2.904989   -0.053060
    2.O         3.251857   -2.115220    0.447235
    3.H         4.045323   -1.651867    0.782561
    4.H        -3.265482   -0.152087    0.023069
    5.O        -2.156423    0.080004    0.576310
    6.H        -2.191949    0.747856    1.286524
    7.H        -4.783189    0.334006   -0.851940
    8.O        -4.264716   -0.422834   -0.512710
    9.H        -4.862585   -1.009673   -0.007713
   10.H         1.881093   -0.178666   -1.362240
   11.O         1.562471   -0.763246   -0.649191
   12.H         2.465021   -1.435369   -0.092343
   13.Hg       -0.286169   -0.293626   -0.036618
 <Jan01-2013> <03:54:42>  >>>> CORORT
 <Jan01-2013> <03:54:42>  >>>> FITINT
 <Jan01-2013> <03:54:43>  >>>> CLSMAT
 <Jan01-2013> <03:54:46>  >>>> ORTHON
 <Jan01-2013> <03:54:46>  >>>> GENPT
 <Jan01-2013> <03:54:46>  Acc.Num.Int.=   6.000
 <Jan01-2013> <03:54:46>  Reusing previous cell geometry for gradient smoothing.
 <Jan01-2013> <03:54:47>  Block Length= 128
 <Jan01-2013> <03:54:47>  >>>> PTBAS
 <Jan01-2013> <03:55:25>  >>>> CYCLE
 <Jan01-2013> <03:55:27>    1
 <Jan01-2013> <03:55:31>    2  ErrMat   0.00038701  MaxEl -0.00006751
 <Jan01-2013> <03:55:35>    3  ErrMat   0.00022572  MaxEl -0.00003783
 <Jan01-2013> <03:55:39>    4  ErrMat   0.00011997  MaxEl -0.00002590
 <Jan01-2013> <03:55:45>    5  ErrMat   0.00002339  MaxEl -0.00000299
 <Jan01-2013> <03:55:49>    6  ErrMat   0.00001421  MaxEl  0.00000205
 <Jan01-2013> <03:55:53>    7  ErrMat   0.00000429  MaxEl  0.00000044
 <Jan01-2013> <03:55:55>  SCF converged
 <Jan01-2013> <03:55:58>    8  ErrMat   0.00000103  MaxEl -0.00000010
 <Jan01-2013> <03:56:02>  >>>> TOTEN
 <Jan01-2013> <03:56:07>  >>>> POPAN
 <Jan01-2013> <03:56:07>  >>>> DEBYE
 <Jan01-2013> <03:56:07>  >>>> AMETS
 <Jan01-2013> <03:56:07>  >>>> ENGRAD
  Coordinates in Frequency Displacement 71
    Atom         X           Y           Z   (Angstrom)
    1.H         3.539651   -2.904989   -0.053060
    2.O         3.251857   -2.115220    0.447235
    3.H         4.045323   -1.651867    0.782561
    4.H        -3.265482   -0.152087    0.023069
    5.O        -2.156423    0.080004    0.576310
    6.H        -2.191949    0.747856    1.286524
    7.H        -4.783189    0.334006   -0.851940
    8.O        -4.264716   -0.422834   -0.512710
    9.H        -4.862585   -1.009673   -0.007713
   10.H         1.881093   -0.178666   -1.362240
   11.O         1.562471   -0.763246   -0.649191
   12.H         2.465021   -1.445369   -0.102343
   13.Hg       -0.286169   -0.293626   -0.036618
 <Jan01-2013> <03:56:56>  >>>> CORORT
 <Jan01-2013> <03:56:57>  >>>> FITINT
 <Jan01-2013> <03:56:57>  >>>> CLSMAT
 <Jan01-2013> <03:57:01>  >>>> ORTHON
 <Jan01-2013> <03:57:01>  >>>> GENPT
 <Jan01-2013> <03:57:01>  Acc.Num.Int.=   6.000
 <Jan01-2013> <03:57:01>  Reusing previous cell geometry for gradient smoothing.
 <Jan01-2013> <03:57:01>  Block Length= 128
 <Jan01-2013> <03:57:02>  >>>> PTBAS
 <Jan01-2013> <03:57:40>  >>>> CYCLE
 <Jan01-2013> <03:57:42>    1
 <Jan01-2013> <03:57:46>    2  ErrMat   0.01465903  MaxEl  0.00233899
 <Jan01-2013> <03:57:51>    3  ErrMat   0.00694983  MaxEl -0.00112401
 <Jan01-2013> <03:57:57>    4  ErrMat   0.00558853  MaxEl -0.00083919
 <Jan01-2013> <03:58:01>    5  ErrMat   0.00242859  MaxEl -0.00029892
 <Jan01-2013> <03:58:05>    6  ErrMat   0.00052188  MaxEl  0.00008400
 <Jan01-2013> <03:58:09>    7  ErrMat   0.00020280  MaxEl -0.00002752
 <Jan01-2013> <03:58:13>    8  ErrMat   0.00005537  MaxEl  0.00000638
 <Jan01-2013> <03:58:18>    9  ErrMat   0.00001047  MaxEl -0.00000172
 <Jan01-2013> <03:58:22>   10  ErrMat   0.00000510  MaxEl  0.00000050
 <Jan01-2013> <03:58:25>  SCF converged
 <Jan01-2013> <03:58:28>   11  ErrMat   0.00000051  MaxEl  0.00000005
 <Jan01-2013> <03:58:33>  >>>> TOTEN
 <Jan01-2013> <03:58:38>  >>>> POPAN
 <Jan01-2013> <03:58:38>  >>>> DEBYE
 <Jan01-2013> <03:58:38>  >>>> AMETS
 <Jan01-2013> <03:58:38>  >>>> ENGRAD
  Coordinates in Frequency Displacement 72
    Atom         X           Y           Z   (Angstrom)
    1.H         3.539651   -2.904989   -0.053060
    2.O         3.251857   -2.115220    0.447235
    3.H         4.045323   -1.651867    0.782561
    4.H        -3.265482   -0.152087    0.023069
    5.O        -2.156423    0.080004    0.576310
    6.H        -2.191949    0.747856    1.286524
    7.H        -4.783189    0.334006   -0.851940
    8.O        -4.264716   -0.422834   -0.512710
    9.H        -4.862585   -1.009673   -0.007713
   10.H         1.881093   -0.178666   -1.362240
   11.O         1.562471   -0.763246   -0.649191
   12.H         2.465021   -1.445369   -0.082343
   13.Hg       -0.286169   -0.293626   -0.036618
 <Jan01-2013> <03:59:30>  >>>> CORORT
 <Jan01-2013> <03:59:30>  >>>> FITINT
 <Jan01-2013> <03:59:31>  >>>> CLSMAT
 <Jan01-2013> <03:59:35>  >>>> ORTHON
 <Jan01-2013> <03:59:35>  >>>> GENPT
 <Jan01-2013> <03:59:35>  Acc.Num.Int.=   6.000
 <Jan01-2013> <03:59:35>  Reusing previous cell geometry for gradient smoothing.
 <Jan01-2013> <03:59:35>  Block Length= 128
 <Jan01-2013> <03:59:36>  >>>> PTBAS
 <Jan01-2013> <04:00:19>  >>>> CYCLE
 <Jan01-2013> <04:00:21>    1
 <Jan01-2013> <04:00:25>    2  ErrMat   0.00028352  MaxEl  0.00005819
 <Jan01-2013> <04:00:29>    3  ErrMat   0.00017092  MaxEl  0.00003898
 <Jan01-2013> <04:00:33>    4  ErrMat   0.00010752  MaxEl  0.00001910
 <Jan01-2013> <04:00:38>    5  ErrMat   0.00003158  MaxEl  0.00000497
 <Jan01-2013> <04:00:43>    6  ErrMat   0.00001025  MaxEl -0.00000145
 <Jan01-2013> <04:00:47>    7  ErrMat   0.00000290  MaxEl  0.00000034
 <Jan01-2013> <04:00:49>  SCF converged
 <Jan01-2013> <04:00:51>    8  ErrMat   0.00000089  MaxEl -0.00000013
 <Jan01-2013> <04:00:56>  >>>> TOTEN
 <Jan01-2013> <04:01:02>  >>>> POPAN
 <Jan01-2013> <04:01:02>  >>>> DEBYE
 <Jan01-2013> <04:01:02>  >>>> AMETS
 <Jan01-2013> <04:01:02>  >>>> ENGRAD
  Coordinates in Frequency Displacement 73
    Atom         X           Y           Z   (Angstrom)
    1.H         3.539651   -2.904989   -0.053060
    2.O         3.251857   -2.115220    0.447235
    3.H         4.045323   -1.651867    0.782561
    4.H        -3.265482   -0.152087    0.023069
    5.O        -2.156423    0.080004    0.576310
    6.H        -2.191949    0.747856    1.286524
    7.H        -4.783189    0.334006   -0.851940
    8.O        -4.264716   -0.422834   -0.512710
    9.H        -4.862585   -1.009673   -0.007713
   10.H         1.881093   -0.178666   -1.362240
   11.O         1.562471   -0.763246   -0.649191
   12.H         2.465021   -1.445369   -0.092343
   13.Hg       -0.296169   -0.293626   -0.036618
 <Jan01-2013> <04:01:52>  >>>> CORORT
 <Jan01-2013> <04:01:52>  >>>> FITINT
 <Jan01-2013> <04:01:53>  >>>> CLSMAT
 <Jan01-2013> <04:01:57>  >>>> ORTHON
 <Jan01-2013> <04:01:57>  >>>> GENPT
 <Jan01-2013> <04:01:57>  Acc.Num.Int.=   6.000
 <Jan01-2013> <04:01:57>  Reusing previous cell geometry for gradient smoothing.
 <Jan01-2013> <04:01:57>  Block Length= 128
 <Jan01-2013> <04:01:58>  >>>> PTBAS
 <Jan01-2013> <04:02:44>  >>>> CYCLE
 <Jan01-2013> <04:02:49>    1
 <Jan01-2013> <04:02:53>    2  ErrMat   0.00949349  MaxEl  0.00132924
 <Jan01-2013> <04:02:58>    3  ErrMat   0.00286869  MaxEl  0.00032531
 <Jan01-2013> <04:03:02>    4  ErrMat   0.00184757  MaxEl -0.00028915
 <Jan01-2013> <04:03:07>    5  ErrMat   0.00036922  MaxEl -0.00004423
 <Jan01-2013> <04:03:11>    6  ErrMat   0.00013492  MaxEl -0.00002055
 <Jan01-2013> <04:03:15>    7  ErrMat   0.00005295  MaxEl -0.00000788
 <Jan01-2013> <04:03:19>    8  ErrMat   0.00001270  MaxEl  0.00000143
 <Jan01-2013> <04:03:25>    9  ErrMat   0.00000352  MaxEl -0.00000061
 <Jan01-2013> <04:03:27>  SCF converged
 <Jan01-2013> <04:03:29>   10  ErrMat   0.00000118  MaxEl -0.00000015
 <Jan01-2013> <04:03:33>  >>>> TOTEN
 <Jan01-2013> <04:03:38>  >>>> POPAN
 <Jan01-2013> <04:03:39>  >>>> DEBYE
 <Jan01-2013> <04:03:39>  >>>> AMETS
 <Jan01-2013> <04:03:39>  >>>> ENGRAD
  Coordinates in Frequency Displacement 74
    Atom         X           Y           Z   (Angstrom)
    1.H         3.539651   -2.904989   -0.053060
    2.O         3.251857   -2.115220    0.447235
    3.H         4.045323   -1.651867    0.782561
    4.H        -3.265482   -0.152087    0.023069
    5.O        -2.156423    0.080004    0.576310
    6.H        -2.191949    0.747856    1.286524
    7.H        -4.783189    0.334006   -0.851940
    8.O        -4.264716   -0.422834   -0.512710
    9.H        -4.862585   -1.009673   -0.007713
   10.H         1.881093   -0.178666   -1.362240
   11.O         1.562471   -0.763246   -0.649191
   12.H         2.465021   -1.445369   -0.092343
   13.Hg       -0.276169   -0.293626   -0.036618
 <Jan01-2013> <04:04:27>  >>>> CORORT
 <Jan01-2013> <04:04:27>  >>>> FITINT
 <Jan01-2013> <04:04:28>  >>>> CLSMAT
 <Jan01-2013> <04:04:31>  >>>> ORTHON
 <Jan01-2013> <04:04:31>  >>>> GENPT
 <Jan01-2013> <04:04:31>  Acc.Num.Int.=   6.000
 <Jan01-2013> <04:04:31>  Reusing previous cell geometry for gradient smoothing.
 <Jan01-2013> <04:04:32>  Block Length= 128
 <Jan01-2013> <04:04:32>  >>>> PTBAS
 <Jan01-2013> <04:05:09>  >>>> CYCLE
 <Jan01-2013> <04:05:11>    1
 <Jan01-2013> <04:05:16>    2  ErrMat   0.00037533  MaxEl  0.00005294
 <Jan01-2013> <04:05:20>    3  ErrMat   0.00013176  MaxEl  0.00001802
 <Jan01-2013> <04:05:24>    4  ErrMat   0.00006745  MaxEl -0.00000990
 <Jan01-2013> <04:05:28>    5  ErrMat   0.00003626  MaxEl -0.00000538
 <Jan01-2013> <04:05:32>    6  ErrMat   0.00000626  MaxEl  0.00000095
 <Jan01-2013> <04:05:34>  SCF converged
 <Jan01-2013> <04:05:39>    7  ErrMat   0.00000597  MaxEl  0.00000091
 <Jan01-2013> <04:05:43>  >>>> TOTEN
 <Jan01-2013> <04:05:48>  >>>> POPAN
 <Jan01-2013> <04:05:48>  >>>> DEBYE
 <Jan01-2013> <04:05:48>  >>>> AMETS
 <Jan01-2013> <04:05:48>  >>>> ENGRAD
  Coordinates in Frequency Displacement 75
    Atom         X           Y           Z   (Angstrom)
    1.H         3.539651   -2.904989   -0.053060
    2.O         3.251857   -2.115220    0.447235
    3.H         4.045323   -1.651867    0.782561
    4.H        -3.265482   -0.152087    0.023069
    5.O        -2.156423    0.080004    0.576310
    6.H        -2.191949    0.747856    1.286524
    7.H        -4.783189    0.334006   -0.851940
    8.O        -4.264716   -0.422834   -0.512710
    9.H        -4.862585   -1.009673   -0.007713
   10.H         1.881093   -0.178666   -1.362240
   11.O         1.562471   -0.763246   -0.649191
   12.H         2.465021   -1.445369   -0.092343
   13.Hg       -0.286169   -0.303626   -0.036618
 <Jan01-2013> <04:06:41>  >>>> CORORT
 <Jan01-2013> <04:06:41>  >>>> FITINT
 <Jan01-2013> <04:06:42>  >>>> CLSMAT
 <Jan01-2013> <04:06:46>  >>>> ORTHON
 <Jan01-2013> <04:06:46>  >>>> GENPT
 <Jan01-2013> <04:06:46>  Acc.Num.Int.=   6.000
 <Jan01-2013> <04:06:46>  Reusing previous cell geometry for gradient smoothing.
 <Jan01-2013> <04:06:46>  Block Length= 128
 <Jan01-2013> <04:06:46>  >>>> PTBAS
 <Jan01-2013> <04:07:25>  >>>> CYCLE
 <Jan01-2013> <04:07:28>    1
 <Jan01-2013> <04:07:33>    2  ErrMat   0.00654669  MaxEl -0.00125644
 <Jan01-2013> <04:07:38>    3  ErrMat   0.00316509  MaxEl -0.00062274
 <Jan01-2013> <04:07:43>    4  ErrMat   0.00269249  MaxEl -0.00044638
 <Jan01-2013> <04:07:47>    5  ErrMat   0.00034112  MaxEl  0.00005120
 <Jan01-2013> <04:07:53>    6  ErrMat   0.00018854  MaxEl -0.00003185
 <Jan01-2013> <04:07:57>    7  ErrMat   0.00002747  MaxEl  0.00000377
 <Jan01-2013> <04:08:01>    8  ErrMat   0.00001558  MaxEl  0.00000199
 <Jan01-2013> <04:08:06>    9  ErrMat   0.00000212  MaxEl -0.00000025
 <Jan01-2013> <04:08:08>  SCF converged
 <Jan01-2013> <04:08:10>   10  ErrMat   0.00000105  MaxEl  0.00000009
 <Jan01-2013> <04:08:14>  >>>> TOTEN
 <Jan01-2013> <04:08:19>  >>>> POPAN
 <Jan01-2013> <04:08:19>  >>>> DEBYE
 <Jan01-2013> <04:08:19>  >>>> AMETS
 <Jan01-2013> <04:08:19>  >>>> ENGRAD
  Coordinates in Frequency Displacement 76
    Atom         X           Y           Z   (Angstrom)
    1.H         3.539651   -2.904989   -0.053060
    2.O         3.251857   -2.115220    0.447235
    3.H         4.045323   -1.651867    0.782561
    4.H        -3.265482   -0.152087    0.023069
    5.O        -2.156423    0.080004    0.576310
    6.H        -2.191949    0.747856    1.286524
    7.H        -4.783189    0.334006   -0.851940
    8.O        -4.264716   -0.422834   -0.512710
    9.H        -4.862585   -1.009673   -0.007713
   10.H         1.881093   -0.178666   -1.362240
   11.O         1.562471   -0.763246   -0.649191
   12.H         2.465021   -1.445369   -0.092343
   13.Hg       -0.286169   -0.283626   -0.036618
 <Jan01-2013> <04:09:24>  >>>> CORORT
 <Jan01-2013> <04:09:24>  >>>> FITINT
 <Jan01-2013> <04:09:25>  >>>> CLSMAT
 <Jan01-2013> <04:09:30>  >>>> ORTHON
 <Jan01-2013> <04:09:30>  >>>> GENPT
 <Jan01-2013> <04:09:30>  Acc.Num.Int.=   6.000
 <Jan01-2013> <04:09:30>  Reusing previous cell geometry for gradient smoothing.
 <Jan01-2013> <04:09:30>  Block Length= 128
 <Jan01-2013> <04:09:31>  >>>> PTBAS
 <Jan01-2013> <04:10:23>  >>>> CYCLE
 <Jan01-2013> <04:10:25>    1
 <Jan01-2013> <04:10:33>    2  ErrMat   0.00008193  MaxEl -0.00001336
 <Jan01-2013> <04:10:40>    3  ErrMat   0.00004049  MaxEl -0.00000669
 <Jan01-2013> <04:10:48>    4  ErrMat   0.00003511  MaxEl -0.00000592
 <Jan01-2013> <04:10:56>    5  ErrMat   0.00000781  MaxEl  0.00000100
 <Jan01-2013> <04:11:03>    6  ErrMat   0.00000315  MaxEl  0.00000046
 <Jan01-2013> <04:11:07>  SCF converged
 <Jan01-2013> <04:11:11>    7  ErrMat   0.00000117  MaxEl  0.00000017
 <Jan01-2013> <04:11:17>  >>>> TOTEN
 <Jan01-2013> <04:11:26>  >>>> POPAN
 <Jan01-2013> <04:11:26>  >>>> DEBYE
 <Jan01-2013> <04:11:26>  >>>> AMETS
 <Jan01-2013> <04:11:26>  >>>> ENGRAD
  Coordinates in Frequency Displacement 77
    Atom         X           Y           Z   (Angstrom)
    1.H         3.539651   -2.904989   -0.053060
    2.O         3.251857   -2.115220    0.447235
    3.H         4.045323   -1.651867    0.782561
    4.H        -3.265482   -0.152087    0.023069
    5.O        -2.156423    0.080004    0.576310
    6.H        -2.191949    0.747856    1.286524
    7.H        -4.783189    0.334006   -0.851940
    8.O        -4.264716   -0.422834   -0.512710
    9.H        -4.862585   -1.009673   -0.007713
   10.H         1.881093   -0.178666   -1.362240
   11.O         1.562471   -0.763246   -0.649191
   12.H         2.465021   -1.445369   -0.092343
   13.Hg       -0.286169   -0.293626   -0.046618
 <Jan01-2013> <04:12:50>  >>>> CORORT
 <Jan01-2013> <04:12:50>  >>>> FITINT
 <Jan01-2013> <04:12:51>  >>>> CLSMAT
 <Jan01-2013> <04:12:55>  >>>> ORTHON
 <Jan01-2013> <04:12:55>  >>>> GENPT
 <Jan01-2013> <04:12:55>  Acc.Num.Int.=   6.000
 <Jan01-2013> <04:12:55>  Reusing previous cell geometry for gradient smoothing.
 <Jan01-2013> <04:12:56>  Block Length= 128
 <Jan01-2013> <04:12:56>  >>>> PTBAS
 <Jan01-2013> <04:13:47>  >>>> CYCLE
 <Jan01-2013> <04:13:50>    1
 <Jan01-2013> <04:13:57>    2  ErrMat   0.00657386  MaxEl  0.00128588
 <Jan01-2013> <04:14:04>    3  ErrMat   0.00319386  MaxEl  0.00062790
 <Jan01-2013> <04:14:10>    4  ErrMat   0.00289960  MaxEl -0.00037549
 <Jan01-2013> <04:14:17>    5  ErrMat   0.00031049  MaxEl  0.00003814
 <Jan01-2013> <04:14:25>    6  ErrMat   0.00008787  MaxEl  0.00001194
 <Jan01-2013> <04:14:32>    7  ErrMat   0.00002758  MaxEl -0.00000386
 <Jan01-2013> <04:14:39>    8  ErrMat   0.00000529  MaxEl  0.00000068
 <Jan01-2013> <04:14:43>  SCF converged
 <Jan01-2013> <04:14:46>    9  ErrMat   0.00000283  MaxEl -0.00000036
 <Jan01-2013> <04:14:52>  >>>> TOTEN
 <Jan01-2013> <04:15:00>  >>>> POPAN
 <Jan01-2013> <04:15:00>  >>>> DEBYE
 <Jan01-2013> <04:15:01>  >>>> AMETS
 <Jan01-2013> <04:15:01>  >>>> ENGRAD
  Coordinates in Frequency Displacement 78
    Atom         X           Y           Z   (Angstrom)
    1.H         3.539651   -2.904989   -0.053060
    2.O         3.251857   -2.115220    0.447235
    3.H         4.045323   -1.651867    0.782561
    4.H        -3.265482   -0.152087    0.023069
    5.O        -2.156423    0.080004    0.576310
    6.H        -2.191949    0.747856    1.286524
    7.H        -4.783189    0.334006   -0.851940
    8.O        -4.264716   -0.422834   -0.512710
    9.H        -4.862585   -1.009673   -0.007713
   10.H         1.881093   -0.178666   -1.362240
   11.O         1.562471   -0.763246   -0.649191
   12.H         2.465021   -1.445369   -0.092343
   13.Hg       -0.286169   -0.293626   -0.026618
 <Jan01-2013> <04:16:35>  >>>> CORORT
 <Jan01-2013> <04:16:35>  >>>> FITINT
 <Jan01-2013> <04:16:36>  >>>> CLSMAT
 <Jan01-2013> <04:16:41>  >>>> ORTHON
 <Jan01-2013> <04:16:41>  >>>> GENPT
 <Jan01-2013> <04:16:41>  Acc.Num.Int.=   6.000
 <Jan01-2013> <04:16:41>  Reusing previous cell geometry for gradient smoothing.
 <Jan01-2013> <04:16:41>  Block Length= 128
 <Jan01-2013> <04:16:42>  >>>> PTBAS
 <Jan01-2013> <04:17:34>  >>>> CYCLE
 <Jan01-2013> <04:17:37>    1
 <Jan01-2013> <04:17:44>    2  ErrMat   0.00004385  MaxEl -0.00000559
 <Jan01-2013> <04:17:52>    3  ErrMat   0.00002135  MaxEl  0.00000246
 <Jan01-2013> <04:17:59>    4  ErrMat   0.00001232  MaxEl  0.00000179
 <Jan01-2013> <04:18:05>    5  ErrMat   0.00000593  MaxEl  0.00000066
 <Jan01-2013> <04:18:09>  SCF converged
 <Jan01-2013> <04:18:12>    6  ErrMat   0.00000165  MaxEl -0.00000019
 <Jan01-2013> <04:18:18>  >>>> TOTEN
 <Jan01-2013> <04:18:27>  >>>> POPAN
 <Jan01-2013> <04:18:27>  >>>> DEBYE
 <Jan01-2013> <04:18:27>  >>>> AMETS
 <Jan01-2013> <04:18:27>  >>>> ENGRAD
 <Jan01-2013> <04:19:56>  Force Constants computed
 <Jan01-2013> <04:19:56>  NORMAL TERMINATION
 <Jan01-2013> <04:19:56>  END
 <Jan01-2013> <04:19:56>  Total Bonding Energy: -42.14375160 a.u. 
