
 *******************************************************************************
 *                                                                             *
 *  -------------------------------------                                      *
 *   Amsterdam Density Functional  (ADF)         2013.01   April 2, 2013       *
 *  -------------------------------------                                      *
 *                                               Build 201304112106            *
 *                                                                             *
 *                                                                             *
 *                            =====================                            *
 *                            |                   |                            *
 *                            |     D I R A C     |                            *
 *                            |                   |                            *
 *                            =====================                            *
 *                                                                             *
 *                                                                             *
 *   Online information and documentation:  http://www.scm.com                 *
 *   E-mail:  support@scm.com   info@scm.com                                   *
 *                                                                             *
 *   Scientific publications using ADF results must be properly referenced     *
 *   See the User Manuals (or the web site) for recommended citations          *
 *   The terms and conditions of the End User License Agreement apply to       *
 *   the use of ADF, http://www.scm.com/Sales/LicAgreement.html                *
 *                                                                             *
 ****************************  x86_64_linux_intel  *****************************
 
 Licensed to: Prof. Cacier Hadad / University of Antioquia / Medellin / COLOMBIA
 SCM User ID: u15319
  
 DIRAC 2013.01  RunTime: Jan01-2013 00:00:00  Nodes: 1  Procs: 1

 Temporary files are created in /tmp/kid_0.3ipqnk

1
 HYDROGEN ATOM RELATIVISTIC, Point Nuc, A and c from libtc   
 N J RN H ZN XION ANUC CLIGHT
 5000    1100.00000000197.36710137  1.00000000  0.00000000    1.007825  0.1370360E+03
  PH   PHI     EPS        DEL        DELRVR
  0.30  0.30     2500.00  0.00001000  0.00001000
 IDIRC  NC1  NDEBU NPRIN  IPUN IRCOR IWCOR
   1   300     0     0     0     0     0
   XALPHA      XLATTER      RNUC
  0.70000000  0.00000000  0.00000000 Point Charge
   XN   XL   XJ      XE          XZ      XDELL
  1.0  0.0  0.5      -1.000       1.000     0.00000
 ICORP=  0  NPCL=  0  DEMP=0.00  PEPS=0.000000
 R(1)=  0.1000000E-08 D=  0.1005080E+01 RNUC=  0.0000000E+00
 converged at cycle   32  DENSITY AVERAGING    0.2400
  MAXIMUM ERROR IN R.V(R) IS   0.79874357E-05
 Q,EY,EV,EZ,ESUM,ETOT,RHO  0.100000E+01 -0.266614E+00 -0.619969E+00 -0.910779E+00 -0.203940E+00 -0.415998E+00  0.337036E-17


 DIRAC CALCULATION
1                    HYDROGEN ATOM RELATIVISTIC, Point Nuc, A and c from libtc


 EXCHANGE COEFFICIENT=  0.7000000           TAIL CORRECTION=  0.           NUCLEAR RADIUS=  0.000E+00
0                       ORBITAL    N    L    J     ELECTRONS     EIGENVALUE                DELTA OF EIGENV.

                          1S1/2  1.0  0.0  0.5     1.000       -0.2039397E+00                 0.2720093E-06


                                        NUCLEAR CHARGE=    1.000000
                            INTEGRAL OF CHARGE DENSITY=    1.000000
                           SUM OF THE ORBITAL ENERGIES=     -0.2039
                                          TOTAL ENERGY=     -0.4160
                                        KINETIC ENERGY=      0.4160
                             NUCLEAR ATTRACTION ENERGY=     -0.9108
                             ELECTRON REPULSION ENERGY=      0.2787
                                       EXCHANGE ENERGY=     -0.2000

 *******************************************************************************

                             D I R A C   E X I T
 NORMAL TERMINATION



 =================
 Timing Statistics
 =================
  
 Total Used :                     CPU=        0.10      System=        0.06     Elapsed=        0.56

 Calls  Section                     ( Mean, Percentage )
 ---------------------------------------------------------------------------------------------------
     2  ><      ................      0.00    0.01             0.00    0.03             0.00    0.00
     1  EXIT PROCEDURE .........      0.10   99.99             0.06   99.97             0.56  100.00


 Currently Open Files (EXIT00)
 ====================

 Unit    Access Format  Status   Type       Ident (file)
 -------------------------------------------------------
   3      SEQ    FORM   TRANSP  NORMAL      LOGFILE
                                          ( logfile )


 Buffered I/O statistics
 =======================
 Memory available:                     67108864
 Number of records fitting in memory:     16131
 Input : 100.0% of                            0  *4k bytes
 Output: 100.0% of                            0  *4k bytes
 Records from serial files evicted:           0
                    others evicted:           0
 Hash table lookups:          0 with          0 conflicts (100.00%)
(INPUT FILE)
Create H   file=/home/andyzapa/adf2013.01/atomicdata/ZORA/QZ4P/H
XC
GGA PBE
End
relativistic ZORA
Corepotentials t12.rel
End Input

 *******************************************************************************
 *                                                                             *
 *  -------------------------------------                                      *
 *   Amsterdam Density Functional  (ADF)         2013.01   April 2, 2013       *
 *  -------------------------------------                                      *
 *                                               Build 201304112215            *
 *                                                                             *
 *                                                                             *
 *                              =================                              *
 *                              |               |                              *
 *                              |     A D F     |                              *
 *                              |               |                              *
 *                              =================                              *
 *                                                                             *
 *                                                                             *
 *   Online information and documentation:  http://www.scm.com                 *
 *   E-mail:  support@scm.com   info@scm.com                                   *
 *                                                                             *
 *   Scientific publications using ADF results must be properly referenced     *
 *   See the User Manuals (or the web site) for recommended citations          *
 *   The terms and conditions of the End User License Agreement apply to       *
 *   the use of ADF, http://www.scm.com/Sales/LicAgreement.html                *
 *                                                                             *
 ********************  x86_64_linux_intel / platform_mpi  **********************
 
 Licensed to: Prof. Cacier Hadad / University of Antioquia / Medellin / COLOMBIA
 SCM User ID: u15319
  
 ADF 2013.01  RunTime: Jan01-2013 00:00:01  Nodes: 1  Procs: 1

 Temporary files are created in /tmp/kid_0.iRSyC8

 Hydrogen (QZ, all electron, 5S 2P 2D)



 ===========================
 A T T A C H E D   F I L E S
 ===========================
  
 CREATE - Data File:    /home/andyzapa/adf2013.01/atomicdata/ZORA/QZ4P/H
                        Hydrogen (QZ, all electron, 5S 2P 2D)
 Core Potentials:
         file : t12.rel



 ===============================
 M O D E L   P A R A M E T E R S
 ===============================
  
 DENSITY FUNCTIONAL POTENTIAL (scf)
    LDA:                               PW92                                    == Not Default ==
    Gradient Corrections:              PBEc PBEx                               == Not Default ==

 SPIN  (restricted / unrestr.)
    Molecule:                          Restricted                               

 OTHER ASPECTS
    Relativistic Corrections:          scalar (ZORA,SAPA)                      == Not Default ==

    Nuclear Charge Density Model:      Point Charge Nuclei                                                                                                                                                                                     
    Core Treatment:                    Frozen Orbital(s)                        

    Hyperfine or Zeeman Interaction:   ---                                      



 =====================================
 S Y M M E T R Y ,   E L E C T R O N S
 =====================================
  
 Symmetry: ATOM

 Irreducible Representations, including subspecies
 -------------------------------------------------
 S
 P:x  P:y  P:z
 D:z2  D:x2-y2  D:xy  D:xz  D:yz
 F:z3  F:z  F:xyz  F:z2x  F:z2y  F:x  F:y


 Configuration of Valence Electrons
 ==================================

          Occupation Numbers
          -------------------------------------------------
 S        1
 P        0
 D        0
 F        0
          -------------------------------------------------

 Total:   1

 Net Charge: 0 (Nuclei minus Electrons)

 Preset values for MO occupations will be applied through SCF cycle no. 1000000
 Thereafter, the program will assign electrons to MOs that are spatially
 similar to the occupied MOs in a "reference" cycle ("KeepOrbitals").
 The reference cycle is always the PREVIOUS cycle: it will evolve with
 the SCF procedure.



 ================================
 (Slater-type)  F U N C T I O N S  ***  (Basis and Fit)  ***
 ================================
  

 Atom Type    1  (H)
 ==============

 Valence Basis Sets:   9
 -----------------------
   1 S    3.300000
   1 S    2.000000
   1 S    1.400000
   1 S    1.000000
   1 S    0.710000
   2 P    2.000000
   2 P    1.000000
   3 D    2.500000
   3 D    1.500000

 Charge Fitting Sets (for the computation of the Coulomb Potential):  22
 -----------------------------------------------------------------------
   1 S    6.600000
   1 S    4.620000
   1 S    3.230000
   1 S    2.260000
   1 S    1.580000
   1 S    1.100000
   1 S    0.770000
   2 S    1.000000
   2 P    5.300000
   2 P    3.870000
   2 P    2.820000
   2 P    2.060000
   2 P    1.500000
   3 D    5.800000
   3 D    4.070000
   3 D    2.850000
   3 D    2.000000
   4 F    4.500000
   4 F    3.350000
   4 F    2.500000
   5 G    5.000000
   5 G    3.000000


 BAS: List of all Elementary Cartesian Basis Functions
 =====================================================

 The numbering in the list below (to the right of the function characteristics) is referred
 to in print-outs of MO eigenvectors and Mulliken populations in the BAS representation
 (as contrasted to the SFO representation).

 Notes:
 1. The functions are characterized by a polynomial prefactor (powers of x,y,z and r) and
    an exponential decay factor alpha.
 2. Since the basis sets are specific for an atom TYPE, the individual functions occur on
    all atoms of that type.
 3. The word 'Core' in the left margin signals that it is a Core Function (CF) : not a
    degree of freedom in the valence set, but only used to ensure orthogonalization of
    the other valence basis functions on the frozen Core Orbitals.


 (power of) X  Y  Z  R     Alpha  on Atom
            ==========     =====     ==========

 H                                    1
                                  ---------------------------------------------------------------------------
            0  0  0  0     3.300      1
            0  0  0  0     2.000      2
            0  0  0  0     1.400      3
            0  0  0  0     1.000      4
            0  0  0  0     0.710      5
            1  0  0  0     2.000      6
            0  1  0  0     2.000      7
            0  0  1  0     2.000      8
            1  0  0  0     1.000      9
            0  1  0  0     1.000     10
            0  0  1  0     1.000     11
            2  0  0  0     2.500     12
            1  1  0  0     2.500     13
            1  0  1  0     2.500     14
            0  2  0  0     2.500     15
            0  1  1  0     2.500     16
            0  0  2  0     2.500     17
            2  0  0  0     1.500     18
            1  1  0  0     1.500     19
            1  0  1  0     1.500     20
            0  2  0  0     1.500     21
            0  1  1  0     1.500     22
            0  0  2  0     1.500     23

 Total number of charge fitting functions (nprimf)       107
 Total number of Cartesian basis functions (naos)         23
 Total number of Cartesian core functions  (ncos)          0



 BAS: List of all Elementary Cartesian Basis Functions
 =====================================================

 The numbering in the list below (to the right of the function characteristics) is referred
 to in print-outs of MO eigenvectors and Mulliken populations in the BAS representation
 (as contrasted to the SFO representation).

 Notes:
 1. The functions are characterized by a polynomial prefactor (powers of x,y,z and r) and
    an exponential decay factor alpha.
 2. Since the basis sets are specific for an atom TYPE, the individual functions occur on
    all atoms of that type.
 3. The word 'Core' in the left margin signals that it is a Core Function (CF) : not a
    degree of freedom in the valence set, but only used to ensure orthogonalization of
    the other valence basis functions on the frozen Core Orbitals.


 (power of) X  Y  Z  R     Alpha  on Atom
            ==========     =====     ==========

 H                                    1
                                  ---------------------------------------------------------------------------
            0  0  0  0     3.300      1
            0  0  0  0     2.000      2
            0  0  0  0     1.400      3
            0  0  0  0     1.000      4
            0  0  0  0     0.710      5
            1  0  0  0     2.000      6
            0  1  0  0     2.000      7
            0  0  1  0     2.000      8
            1  0  0  0     1.000      9
            0  1  0  0     1.000     10
            0  0  1  0     1.000     11
            2  0  0  0     2.500     12
            1  1  0  0     2.500     13
            1  0  1  0     2.500     14
            0  2  0  0     2.500     15
            0  1  1  0     2.500     16
            0  0  2  0     2.500     17
            2  0  0  0     1.500     18
            1  1  0  0     1.500     19
            1  0  1  0     1.500     20
            0  2  0  0     1.500     21
            0  1  1  0     1.500     22
            0  0  2  0     1.500     23
1
 ***************************************************************************************************



                                              ***********************
                                              *  T E C H N I C A L  *
                                              ***********************
  



 =============================================================
 P A R A L L E L I Z A T I O N  and  V E C T O R I Z A T I O N
 =============================================================
  
 Nr of parallel processes:                                1
 Maximum vector length in NumInt loops:                 128



 ===============
 I O  vs.  C P U  ***  (store numerical data on disk or recalculate)  ***
 ===============
  
 Basis functions:   recalculate when needed
 Fit functions:     recalculate when needed

 IO buffersize (Mb):                                     64.000000



 =====================
 S C F   U P D A T E S
 =====================
  
 Max. nr. of cycles:                               100
 Convergence criterion:                              0.0000000100
   secondary criterion:                              0.0000000100

 Mix parameter (when DIIS does not apply):           0.2000000000
 Special mix parameter for the first cycle:          1.0000000000


 DIIS (Direct Inversion in Iteration Space)
    Replace damping when SCF Error is below:         0.5000000000
    Apply anyway after SCF cycle:
                                                     5
    (Max.) nr. of expansion vectors:                10

    Upperbound on expansion coefficients:            5.0000000000
    (when exceeded, IterationSpace is re-built)
    2nd Upperbound on coefficients:                 25.0000000000
    (when exceeded, simple damping will be used)
 Automatic ElectronSmearing (in case of problematic SCF convergence) disabled



 =================
 P R E C I S I O N  ***  (General: NumInt, NeglectFunctionTails, ...)  ***
 =================
  

 NumInt:           Target precision:                10.0000000000
 -------           Initial precision:               10.0000000000
                   Min. precision (optimization):   10.0000000000

 Neglect Functions:          Basis functions:        0.1000000000E-11
 ------------------          Fit functions:          0.1000000000E-11



 ===========================
 L I N E A R   S C A L I N G
 ===========================
  

 Cut-off radii density fit:                        0.1000000000E-13
 Overlap cut-off criterion AO matrix elements:     0.1000000000E-11
 Cut-offs for Coulomb potential and fitted density:0.1000000000E-13
 Cut-off criterion for Coulomb multipole terms:    0.1000000000E-13
 Progressive Convergence parameter:                 0.000000000    
1
 ***************************************************************************************************



                                            ***************************
                                            *  C O M P U T A T I O N  *
                                            ***************************
  

 Number of elements of the density matrix on this node (used, total):       276       276



 ====================================================
 Numerical Integration : Voronoi Polyhedra (Te Velde)
 ====================================================
  
 General Accuracy Parameter :                         10.00

 Symmetry used in the points section:  ATOM  


 Summary of the Symmetry Unique Points:
 --------------------------------------
    Nr. of used Symmetry Operators                     1

    Points in the Atomic Spheres                      44
    Points in the Atomic Polyhedra                     0
    Points in the Outer Region                         0
    ----------------------------------------------------
    Total                                             44

    Sum of Weights                                 33854.777883

 Total nr. of points:         44
 Nr. of blocks:                1
 Block length:                44
 Nr. of dummy points:          0


 Test of Precision of the Numerical Integration Grid
 ===================================================

 Integral of the Total Core Density:                   0.00000000000000



 =====
 S C F
 =====
  

 CYCLE    1
 orbitals (Q,E):
 ---------------
 S :1...5            ( 1.00    -0.5000)  ( 0.00    -0.1102)  ( 0.00     0.2912)  ( 0.00     2.1458)
                     ( 0.00    15.1140)
 P :1...2            ( 0.00    -0.0467)  ( 0.00     1.6698)
 D :1...2            ( 0.00     0.4090)  ( 0.00     3.3827)

 CYCLE    2
 d-Pmat  mean:  0.40E-01
 imax=      4: -0.73E+00
 orbitals (Q,E):
 ---------------
 S :1...2            ( 1.00    -0.2213)  ( 0.00     0.0617)
 P :1...1            ( 0.00     0.1820)
 D :1...1            ( 0.00     0.6395)

 CYCLE    3
 d-Pmat  mean:  0.48E-02
 imax=      4:  0.66E-01
 orbitals (Q,E):
 ---------------
 S :1...2            ( 1.00    -0.2392)  ( 0.00     0.0523)
 P :1...1            ( 0.00     0.1713)
 D :1...1            ( 0.00     0.6290)

 CYCLE    4
 d-Pmat  mean:  0.47E-03
 imax=      4: -0.74E-02
 orbitals (Q,E):
 ---------------
 S :1...2            ( 1.00    -0.2386)  ( 0.00     0.0522)
 P :1...1            ( 0.00     0.1716)
 D :1...1            ( 0.00     0.6293)

 CYCLE    5
 d-Pmat  mean:  0.13E-04
 imax=      4:  0.20E-03
 orbitals (Q,E):
 ---------------
 S :1...2            ( 1.00    -0.2386)  ( 0.00     0.0522)
 P :1...1            ( 0.00     0.1716)
 D :1...1            ( 0.00     0.6293)

 CYCLE    6
 d-Pmat  mean:  0.14E-06
 imax=      4:  0.26E-05
 orbitals (Q,E):
 ---------------
 S :1...2            ( 1.00    -0.2386)  ( 0.00     0.0522)
 P :1...1            ( 0.00     0.1716)
 D :1...1            ( 0.00     0.6293)

 CYCLE    7
 d-Pmat  mean:  0.24E-08
 imax=      4:  0.39E-07
 orbitals (Q,E):
 ---------------
 S :1...2            ( 1.00    -0.2386)  ( 0.00     0.0522)
 P :1...1            ( 0.00     0.1716)
 D :1...1            ( 0.00     0.6293)

 SCF CONVERGED

 CYCLE    8
1
 ***************************************************************************************************



                                                *******************
                                                *  R E S U L T S  *
                                                *******************
  
 *** Setting up for NEW gradients in focky
 *** Using FIT density in focky

 Scaled ZORA Orbital Energies, per Irrep and Spin:
 =================================================
                        Occup              E (au)              E (eV)       Diff (eV) with prev. cycle
                        -----      --------------------        ------       --------------------------
 S
               1        1.000     -0.23860414448779E+00        -6.493              -2.14E-10
               2        0.000      0.52240780773202E-01         1.422
               3        0.000      0.50128711414796E+00        13.641
               4        0.000      0.23892611828176E+01        65.015
               5        0.000      0.15295018626305E+02       416.199
 P
               1        0.000      0.17156247999750E+00         4.668
               2        0.000      0.19364620405874E+01        52.694
 D
               1        0.000      0.62928666110105E+00        17.124
               2        0.000      0.36544214463356E+01        99.442


 Partially Occupied:
               1 S                -0.23860414448779E+00
  
 LUMO :        2 S                 0.52240780773202E-01
  


 Orbital Energies, all Irreps
 ========================================

 Irrep        no.  (spin)   Occup              E (au)                E (eV)
 ---------------------------------------------------------------------------
 S             1             1.00       -0.23860414448779E+00        -6.4927
 S             2             0.00        0.52240780773202E-01         1.4215
 P             1             0.00        0.17156247999750E+00         4.6685
 S             3             0.00        0.50128711414796E+00        13.6407
 D             1             0.00        0.62928666110105E+00        17.1238
 P             2             0.00        0.19364620405874E+01        52.6938
 S             4             0.00        0.23892611828176E+01        65.0151
 D             2             0.00        0.36544214463356E+01        99.4419
 S             5             0.00        0.15295018626305E+02       416.1986


 All Electron Calculation, thus no Orbital Energies of the Core Orbitals are calculated



 =======================================
 M U L L I K E N   P O P U L A T I O N S
 =======================================
  
 The survey below gives for each atom:
 a) the total charge (Z minus electrons)
 b) the net spin polarization (nr of electrons spin-A minus spin-B)
 c) for each spin the atomic electron valence density (integrated) per L-value.

 Atom              Charge    Spin density          S         P         D         F
 ----              ------    ------------       ------    ------    ------    ------
 1 H               0.0000                       1.0000    0.0000    0.0000    0.0000

 Populations of individual BAS functions
 ----------------------------------------
 1 H           -0.0037  0.0405  0.0399  0.5670  0.3563  0.0000  0.0000  0.0000  0.0000  0.0000
                0.0000  0.0000  0.0000  0.0000  0.0000  0.0000  0.0000  0.0000  0.0000  0.0000
                0.0000  0.0000  0.0000

 Gross Charges per Atom (Z minus electrons)
 ==========================================
             0.0000
 Net Total:  0.00000000


 Atom-Atom Population Matrix (off-diagonal elements not doubled)
 ===============================================================

     1 :     1.0000



 =============
 Dipole Moment  ***  (Debye)  ***
 =============
  
 Vector   :         0.00000000      0.00000000      0.00000000
 Magnitude:         0.00000000

 This molecular dipole moment is calculated with analytic integration



 =========================================
 Quadrupole Moment (Buckingham convention)  ***  (a.u.)  ***
 =========================================
  
      quad-xx        quad-xy        quad-xz        quad-yy        quad-yz        quad-zz
      0.00000000     0.00000000     0.00000000     0.00000000     0.00000000     0.00000000

 This molecular quadrupole moment is calculated with analytic integration



 ===============================================================================
 Electrostatic potential at the Nuclei due to valence electrons and other nuclei
 ===============================================================================
  
         Atom                  Potential
         ----                  ---------
     1)   H                   0.94463948
 
 
 ========================
 No memory problems found
 ========================
 
 Maximum number of active allocate calls:         378
 
 *******************************************************************************

                             A D F   E X I T
 NORMAL TERMINATION



 =================
 Timing Statistics
 =================
  
 Total Used :                     CPU=        0.29      System=        0.06     Elapsed=        2.42

 Calls  Section                     ( Mean, Percentage )
 ---------------------------------------------------------------------------------------------------
     3  ><      ................      0.00    0.92             0.00    0.00             0.03    3.33
     1  INIT    ................      0.01    3.05             0.01   18.22             0.35   14.66
     1  GEOMET  ................      0.01    4.41             0.03   41.57             0.26   10.82
     1  INPUTA  ................      0.00    1.26             0.00    0.00             0.00    0.20
     1  MAINSY  ................      0.01    5.19             0.00    0.00             0.15    6.29
     1  SYMFIT  ................      0.00    0.20             0.00    0.00             0.00    0.02
     1  CORORT  ................      0.00    0.39             0.00    0.00             0.05    1.91
     1  SYMORB  ................      0.00    0.52             0.00    0.00             0.00    0.06
     1  FITINT  ................      0.01    2.35             0.00    2.37             0.04    1.83
     1  CLSMAT  ................      0.00    0.38             0.00    0.00             0.07    2.74
     1  ORTHON  ................      0.00    1.04             0.00    0.00             0.06    2.54
     1  GENPT   ................      0.01    3.62             0.00    2.07             0.07    3.00
     1  PTBAS   ................      0.00    1.25             0.00    0.00             0.03    1.16
     8  FOCKY   ................      0.02   45.41             0.00   20.91             0.06   18.96
     8  FOCKTR  ................      0.00    1.44             0.00    0.26             0.00    0.18
     8  FOCKNM  ................      0.00    0.14             0.00    0.03             0.00    0.02
     8  SDIIS   ................      0.00    2.66             0.00    1.34             0.03   11.39
     8  EMERGE  ................      0.00    9.69             0.00   11.98             0.02    7.25
     1  COREPS  ................      0.00    1.70             0.00    1.20             0.02    1.03
     1  POPAN   ................      0.00    1.41             0.00    0.00             0.04    1.68
     1  DEBYE   ................      0.00    0.48             0.00    0.00             0.09    3.92
     1  QMPOT   ................      0.00    1.63             0.00    0.03             0.00    0.19
     1  EXIT PROCEDURE .........      0.03   10.85             0.00    0.01             0.17    6.83


 Currently Open Files (EXIT00)
 ====================

 Unit    Access Format  Status   Type       Ident (file)
 -------------------------------------------------------
   3      SEQ    FORM   TRANSP  NORMAL      LOGFILE
                                          ( logfile )


 Buffered I/O statistics
 =======================
 Memory available:                     67108864
 Number of records fitting in memory:     16131
 Input :   1.3% of                         3604  *4k bytes
 Output:  10.6% of                         1855  *4k bytes
 Records from serial files evicted:           0
                    others evicted:           0
 Hash table lookups:      14887 with          0 conflicts (  0.00%)

 ***************************************************************************************************
 (LOGFILE)
 <Jan01-2013> <00:00:00>  DIRAC 2013.01  RunTime: Jan01-2013 00:00:00  Nodes: 1  Procs: 1
 <Jan01-2013> <00:00:01>  NORMAL TERMINATION
 <Jan01-2013> <00:00:01>  END
 <Jan01-2013> <00:00:01>  ADF 2013.01  RunTime: Jan01-2013 00:00:01  Nodes: 1  Procs: 1
 <Jan01-2013> <00:00:01>  Hydrogen (QZ, all electron, 5S 2P 2D)
 <Jan01-2013> <00:00:01>  RunType   : CREATE
 <Jan01-2013> <00:00:01>  Net Charge: 0 (Nuclei minus Electrons)
 <Jan01-2013> <00:00:02>  Symmetry  : ATOM
  Coordinates
    Atom         X           Y           Z   (Angstrom)
    1.H         0.000000    0.000000    0.000000
 <Jan01-2013> <00:00:02>  >>>> CORORT
 <Jan01-2013> <00:00:02>  >>>> FITINT
 <Jan01-2013> <00:00:02>  >>>> CLSMAT
 <Jan01-2013> <00:00:02>  >>>> ORTHON
 <Jan01-2013> <00:00:02>  >>>> GENPT
 <Jan01-2013> <00:00:02>  Acc.Num.Int.=  10.000
 <Jan01-2013> <00:00:02>  Block Length=  44
 <Jan01-2013> <00:00:02>  >>>> PTBAS
 <Jan01-2013> <00:00:02>  >>>> CYCLE
 <Jan01-2013> <00:00:02>    1
 <Jan01-2013> <00:00:02>    2  ErrMat   0.03803841  MaxEl  0.03078708
 <Jan01-2013> <00:00:02>    3  ErrMat   0.00916622  MaxEl -0.00901560
 <Jan01-2013> <00:00:02>    4  ErrMat   0.00035667  MaxEl  0.00031421
 <Jan01-2013> <00:00:02>    5  ErrMat   0.00000962  MaxEl -0.00000892
 <Jan01-2013> <00:00:02>    6  ErrMat   0.00000013  MaxEl  0.00000008
 <Jan01-2013> <00:00:03>    7  ErrMat   0.00000000  MaxEl  0.00000000
 <Jan01-2013> <00:00:03>  SCF converged
 <Jan01-2013> <00:00:03>    8  ErrMat   0.00000000  MaxEl  0.00000000
 <Jan01-2013> <00:00:03>   Solutions with partially occupied orbitals may not be
 <Jan01-2013> <00:00:03>   lowest in energy. You might consider lowering the
 <Jan01-2013> <00:00:03>   symmetry in the input and explicitly specifying integer
 <Jan01-2013> <00:00:03>   occupations. In that case always check that you obtain
 <Jan01-2013> <00:00:03>   an aufbau solution.
 <Jan01-2013> <00:00:03>  >>>> POPAN
 <Jan01-2013> <00:00:03>  >>>> DEBYE
 <Jan01-2013> <00:00:03>  NORMAL TERMINATION
 <Jan01-2013> <00:00:03>  END

 *******************************************************************************
 *                                                                             *
 *  -------------------------------------                                      *
 *   Amsterdam Density Functional  (ADF)         2013.01   April 2, 2013       *
 *  -------------------------------------                                      *
 *                                               Build 201304112106            *
 *                                                                             *
 *                                                                             *
 *                            =====================                            *
 *                            |                   |                            *
 *                            |     D I R A C     |                            *
 *                            |                   |                            *
 *                            =====================                            *
 *                                                                             *
 *                                                                             *
 *   Online information and documentation:  http://www.scm.com                 *
 *   E-mail:  support@scm.com   info@scm.com                                   *
 *                                                                             *
 *   Scientific publications using ADF results must be properly referenced     *
 *   See the User Manuals (or the web site) for recommended citations          *
 *   The terms and conditions of the End User License Agreement apply to       *
 *   the use of ADF, http://www.scm.com/Sales/LicAgreement.html                *
 *                                                                             *
 ****************************  x86_64_linux_intel  *****************************
 
 Licensed to: Prof. Cacier Hadad / University of Antioquia / Medellin / COLOMBIA
 SCM User ID: u15319
  
 DIRAC 2013.01  RunTime: Jan01-2013 00:00:04  Nodes: 1  Procs: 1

 Temporary files are created in /tmp/kid_0.X9WHqR

1
 MERCURY ATOM all electron RELATIVISTIC, Point Nuc, A and c f
 N J RN H ZN XION ANUC CLIGHT
 5000   22100.00000000197.36710137 80.00000000  0.00000000  201.970625  0.1370360E+03
  PH   PHI     EPS        DEL        DELRVR
  0.30  0.30     2500.00  0.00001000  0.00001000
 IDIRC  NC1  NDEBU NPRIN  IPUN IRCOR IWCOR
   1   300     0     0     0     0     0
   XALPHA      XLATTER      RNUC
  0.70000000  0.00000000  0.00000000 Point Charge
   XN   XL   XJ      XE          XZ      XDELL
  1.0  0.0  0.5   -2600.000       2.000     0.00000
  2.0  0.0  0.5    -425.000       2.000     0.00000
  2.0  1.0  0.5    -425.000       2.000     0.00000
  2.0  1.0  1.5    -425.000       4.000     0.00000
  3.0  0.0  0.5    -100.000       2.000     0.00000
  3.0  1.0  0.5    -100.000       2.000     0.00000
  3.0  1.0  1.5    -100.000       4.000     0.00000
  3.0  2.0  1.5     -80.000       4.000     0.00000
  3.0  2.0  2.5     -80.000       6.000     0.00000
  4.0  0.0  0.5     -22.000       2.000     0.00000
  4.0  1.0  0.5     -20.000       2.000     0.00000
  4.0  1.0  1.5     -20.000       4.000     0.00000
  4.0  2.0  1.5     -11.000       4.000     0.00000
  4.0  2.0  2.5     -11.000       6.000     0.00000
  5.0  0.0  0.5      -3.000       2.000     0.00000
  5.0  1.0  0.5      -2.200       2.000     0.00000
  5.0  1.0  1.5      -2.200       4.000     0.00000
  4.0  3.0  2.5      -1.000       6.000     0.00000
  4.0  3.0  3.5      -1.000       8.000     0.00000
  5.0  2.0  1.5      -0.500       4.000     0.00000
  5.0  2.0  2.5      -0.500       6.000     0.00000
  6.0  0.0  0.5      -0.200       2.000     0.00000
 ICORP=  0  NPCL=  0  DEMP=0.00  PEPS=0.000000
 R(1)=  0.1000000E-08 D=  0.1005080E+01 RNUC=  0.0000000E+00
 converged at cycle   71  DENSITY AVERAGING    0.0786
  MAXIMUM ERROR IN R.V(R) IS   0.62886379E-05
 Q,EY,EV,EZ,ESUM,ETOT,RHO  0.800000E+02 -0.496572E+03 -0.348382E+05 -0.496228E+05 -0.121443E+05 -0.196607E+05  0.241251E-08


 DIRAC CALCULATION
1                    MERCURY ATOM all electron RELATIVISTIC, Point Nuc, A and c from libtc


 EXCHANGE COEFFICIENT=  0.7000000           TAIL CORRECTION=  0.           NUCLEAR RADIUS=  0.000E+00
0                       ORBITAL    N    L    J     ELECTRONS     EIGENVALUE                DELTA OF EIGENV.

                          1S1/2  1.0  0.0  0.5     2.000       -0.3050991E+04                 0.4924760E-04
                          2S1/2  2.0  0.0  0.5     2.000       -0.5405089E+03                 0.4254074E-04
                          2P1/2  2.0  1.0  0.5     2.000       -0.5187363E+03                 0.4411548E-04
                          2P3/2  2.0  1.0  1.5     4.000       -0.4471398E+03                 0.4301762E-04
                          3S1/2  3.0  0.0  0.5     2.000       -0.1282616E+03                 0.3041592E-04
                          3P1/2  3.0  1.0  0.5     2.000       -0.1184367E+03                 0.3137989E-04
                          3P3/2  3.0  1.0  1.5     4.000       -0.1025748E+03                 0.2995242E-04
                          3D3/2  3.0  2.0  1.5     4.000       -0.8626975E+02                 0.3222472E-04
                          3D5/2  3.0  2.0  2.5     6.000       -0.8286728E+02                 0.3175282E-04
                          4S1/2  4.0  0.0  0.5     2.000       -0.2816781E+02                 0.1668735E-04
                          4P1/2  4.0  1.0  0.5     2.000       -0.2395484E+02                 0.1669817E-04
                          4P3/2  4.0  1.0  1.5     4.000       -0.2011425E+02                 0.1516031E-04
                          4D3/2  4.0  2.0  1.5     4.000       -0.1321824E+02                 0.1506585E-04
                          4D5/2  4.0  2.0  2.5     6.000       -0.1250170E+02                 0.1460097E-04
                          5S1/2  5.0  0.0  0.5     2.000       -0.4322160E+01                 0.4190347E-05
                          5P1/2  5.0  1.0  0.5     2.000       -0.2925196E+01                 0.3615407E-05
                          5P3/2  5.0  1.0  1.5     4.000       -0.2244086E+01                 0.2893507E-05
                          4F5/2  4.0  3.0  2.5     6.000       -0.3611586E+01                 0.1388062E-04
                          4F7/2  4.0  3.0  3.5     8.000       -0.3456598E+01                 0.1362401E-04
                          5D3/2  5.0  2.0  1.5     4.000       -0.3813662E+00                 0.1502810E-05
                          5D5/2  5.0  2.0  2.5     6.000       -0.3130964E+00                 0.1345942E-05
                          6S1/2  6.0  0.0  0.5     2.000       -0.2314499E+00                 0.2838078E-06


                                        NUCLEAR CHARGE=   80.000000
                            INTEGRAL OF CHARGE DENSITY=   80.000000
                           SUM OF THE ORBITAL ENERGIES= -12144.2566
                                          TOTAL ENERGY= -19660.7046
                                        KINETIC ENERGY=  22693.9156
                             NUCLEAR ATTRACTION ENERGY= -49622.7822
                             ELECTRON REPULSION ENERGY=   7640.5911
                                       EXCHANGE ENERGY=   -372.4292

 *******************************************************************************

                             D I R A C   E X I T
 NORMAL TERMINATION



 =================
 Timing Statistics
 =================
  
 Total Used :                     CPU=        1.01      System=        0.03     Elapsed=        1.43

 Calls  Section                     ( Mean, Percentage )
 ---------------------------------------------------------------------------------------------------
     2  ><      ................      0.00    0.00             0.00    0.05             0.00    0.00
     1  EXIT PROCEDURE .........      1.01  100.00             0.03   99.95             1.43  100.00


 Currently Open Files (EXIT00)
 ====================

 Unit    Access Format  Status   Type       Ident (file)
 -------------------------------------------------------
   3      SEQ    FORM   TRANSP  NORMAL      LOGFILE
                                          ( logfile )


 Buffered I/O statistics
 =======================
 Memory available:                     67108864
 Number of records fitting in memory:     16131
 Input : 100.0% of                            0  *4k bytes
 Output: 100.0% of                            0  *4k bytes
 Records from serial files evicted:           0
                    others evicted:           0
 Hash table lookups:          0 with          0 conflicts (100.00%)
(INPUT FILE)
Create Hg   file=/home/andyzapa/adf2013.01/atomicdata/ZORA/QZ4P/Hg
XC
GGA PBE
End
relativistic ZORA
Corepotentials t12.rel
End Input

 *******************************************************************************
 *                                                                             *
 *  -------------------------------------                                      *
 *   Amsterdam Density Functional  (ADF)         2013.01   April 2, 2013       *
 *  -------------------------------------                                      *
 *                                               Build 201304112215            *
 *                                                                             *
 *                                                                             *
 *                              =================                              *
 *                              |               |                              *
 *                              |     A D F     |                              *
 *                              |               |                              *
 *                              =================                              *
 *                                                                             *
 *                                                                             *
 *   Online information and documentation:  http://www.scm.com                 *
 *   E-mail:  support@scm.com   info@scm.com                                   *
 *                                                                             *
 *   Scientific publications using ADF results must be properly referenced     *
 *   See the User Manuals (or the web site) for recommended citations          *
 *   The terms and conditions of the End User License Agreement apply to       *
 *   the use of ADF, http://www.scm.com/Sales/LicAgreement.html                *
 *                                                                             *
 ********************  x86_64_linux_intel / platform_mpi  **********************
 
 Licensed to: Prof. Cacier Hadad / University of Antioquia / Medellin / COLOMBIA
 SCM User ID: u15319
  
 ADF 2013.01  RunTime: Jan01-2013 00:00:05  Nodes: 1  Procs: 1

 Temporary files are created in /tmp/kid_0.v6VSgC

 Mercury (QZ, all electron, 22S 18P 12D 6F)



 ===========================
 A T T A C H E D   F I L E S
 ===========================
  
 CREATE - Data File:    /home/andyzapa/adf2013.01/atomicdata/ZORA/QZ4P/Hg
                        Mercury (QZ, all electron, 22S 18P 12D 6F)
 Core Potentials:
         file : t12.rel



 ===============================
 M O D E L   P A R A M E T E R S
 ===============================
  
 DENSITY FUNCTIONAL POTENTIAL (scf)
    LDA:                               PW92                                    == Not Default ==
    Gradient Corrections:              PBEc PBEx                               == Not Default ==

 SPIN  (restricted / unrestr.)
    Molecule:                          Restricted                               

 OTHER ASPECTS
    Relativistic Corrections:          scalar (ZORA,SAPA)                      == Not Default ==

    Nuclear Charge Density Model:      Point Charge Nuclei                                                                                                                                                                                     
    Core Treatment:                    Frozen Orbital(s)                        

    Hyperfine or Zeeman Interaction:   ---                                      



 =====================================
 S Y M M E T R Y ,   E L E C T R O N S
 =====================================
  
 Symmetry: ATOM

 Irreducible Representations, including subspecies
 -------------------------------------------------
 S
 P:x  P:y  P:z
 D:z2  D:x2-y2  D:xy  D:xz  D:yz
 F:z3  F:z  F:xyz  F:z2x  F:z2y  F:x  F:y


 Configuration of Valence Electrons
 ==================================

          Occupation Numbers
          -------------------------------------------------
 S        6*2
 P        4*6
 D        3*10
 F        14
          -------------------------------------------------

 Total:   80

 Net Charge: 0 (Nuclei minus Electrons)

 Preset values for MO occupations will be applied through SCF cycle no. 1000000
 Thereafter, the program will assign electrons to MOs that are spatially
 similar to the occupied MOs in a "reference" cycle ("KeepOrbitals").
 The reference cycle is always the PREVIOUS cycle: it will evolve with
 the SCF procedure.



 ================================
 (Slater-type)  F U N C T I O N S  ***  (Basis and Fit)  ***
 ================================
  

 Atom Type    1  (Hg)
 ==============

 Valence Basis Sets:  58
 -----------------------
   1 S10000.000000
   1 S 2240.000000
   1 S  710.000000
   1 S  275.000000
   1 S  128.000000
   1 S   86.900000
   2 S   75.050000
   2 S   43.500000
   2 S   36.450000
   3 S   30.000000
   3 S   23.400000
   3 S   18.750000
   4 S   17.700000
   4 S   12.400000
   4 S    9.550000
   5 S    7.400000
   5 S    5.350000
   5 S    4.000000
   6 S    3.350000
   6 S    2.350000
   6 S    1.600000
   6 S    1.100000
   2 P 2240.000000
   2 P  610.000000
   2 P  195.000000
   2 P   80.250000
   2 P   44.900000
   2 P   34.700000
   3 P   37.250000
   3 P   22.150000
   3 P   17.350000
   4 P   17.100000
   4 P   11.400000
   4 P    8.550000
   5 P    6.550000
   5 P    4.550000
   5 P    3.200000
   6 P    2.600000
   6 P    1.600000
   6 P    1.100000
   3 D   67.750000
   3 D   31.650000
   3 D   21.200000
   3 D   15.850000
   4 D   14.600000
   4 D    9.900000
   4 D    7.050000
   5 D    5.550000
   5 D    3.650000
   5 D    2.300000
   5 D    1.450000
   6 D    1.100000
   4 F   21.250000
   4 F   12.800000
   4 F    7.650000
   4 F    4.600000
   5 F    2.800000
   5 F    1.400000

 Charge Fitting Sets (for the computation of the Coulomb Potential): 112
 -----------------------------------------------------------------------
   1 S20000.000000
   1 S15231.077000
   1 S11599.286000
   1 S 8833.481000
   1 S 6727.171000
   1 S 5123.103000
   1 S 3901.519000
   1 S 2971.217000
   1 S 2262.742000
   1 S 1723.200000
   1 S 1312.309000
   1 S  999.394000
   1 S  761.093000
   1 S  579.613000
   1 S  441.406000
   1 S  336.155000
   1 S  256.000000
   1 S  163.209000
   2 S  192.250000
   2 S  135.734000
   3 S  140.326000
   3 S  104.583000
   3 S   77.944000
   4 S   76.659000
   4 S   59.158000
   4 S   45.651000
   5 S   43.812000
   5 S   34.659000
   5 S   27.417000
   6 S   25.958000
   6 S   20.924000
   6 S   16.867000
   7 S   15.840000
   7 S   12.961000
   7 S   10.605000
   8 S    9.910000
   8 S    8.208000
   8 S    6.798000
   8 S    5.630000
   9 S    5.245000
   9 S    4.389000
   9 S    3.672000
   9 S    3.073000
   9 S    2.571000
   9 S    2.151000
   9 S    1.800000
   2 P  172.900000
   2 P  110.068000
   3 P  103.214000
   4 P   93.440000
   4 P   66.775000
   5 P   59.543000
   5 P   43.944000
   6 P   38.916000
   6 P   29.431000
   7 P   25.986000
   7 P   20.036000
   8 P   17.675000
   8 P   13.845000
   8 P   10.845000
   9 P    9.569000
   9 P    7.596000
   9 P    6.029000
   9 P    4.786000
   9 P    3.799000
   9 P    3.016000
   9 P    2.394000
   9 P    1.900000
   3 D  143.850000
   3 D   92.054000
   4 D   78.387000
   5 D   66.192000
   6 D   55.782000
   6 D   40.226000
   7 D   33.926000
   7 D   25.026000
   8 D   21.151000
   8 D   15.894000
   8 D   11.943000
   9 D   10.121000
   9 D    7.724000
   9 D    5.895000
   9 D    4.499000
   9 D    3.434000
   9 D    2.621000
   9 D    2.000000
   4 F  140.800000
   5 F  111.481000
   6 F   88.596000
   6 F   60.382000
   7 F   48.237000
   7 F   33.762000
   8 F   27.124000
   8 F   19.402000
   8 F   13.879000
   9 F   11.213000
   9 F    8.168000
   9 F    5.950000
   9 F    4.334000
   9 F    3.157000
   9 F    2.300000
   5 G   57.700000
   6 G   44.465000
   6 G   29.419000
   7 G   22.842000
   7 G   15.553000
   8 G   12.166000
   8 G    8.480000
   9 G    6.682000
   9 G    4.750000
   9 G    3.376000
   9 G    2.400000


 BAS: List of all Elementary Cartesian Basis Functions
 =====================================================

 The numbering in the list below (to the right of the function characteristics) is referred
 to in print-outs of MO eigenvectors and Mulliken populations in the BAS representation
 (as contrasted to the SFO representation).

 Notes:
 1. The functions are characterized by a polynomial prefactor (powers of x,y,z and r) and
    an exponential decay factor alpha.
 2. Since the basis sets are specific for an atom TYPE, the individual functions occur on
    all atoms of that type.
 3. The word 'Core' in the left margin signals that it is a Core Function (CF) : not a
    degree of freedom in the valence set, but only used to ensure orthogonalization of
    the other valence basis functions on the frozen Core Orbitals.


 (power of) X  Y  Z  R     Alpha  on Atom
            ==========     =====     ==========

 Hg                                   1
                                  ---------------------------------------------------------------------------
            0  0  0  0 10000.000      1
            0  0  0  0  2240.000      2
            0  0  0  0   710.000      3
            0  0  0  0   275.000      4
            0  0  0  0   128.000      5
            0  0  0  0    86.900      6
            0  0  0  1    75.050      7
            0  0  0  1    43.500      8
            0  0  0  1    36.450      9
            0  0  0  2    30.000     10
            0  0  0  2    23.400     11
            0  0  0  2    18.750     12
            0  0  0  3    17.700     13
            0  0  0  3    12.400     14
            0  0  0  3     9.550     15
            0  0  0  4     7.400     16
            0  0  0  4     5.350     17
            0  0  0  4     4.000     18
            0  0  0  5     3.350     19
            0  0  0  5     2.350     20
            0  0  0  5     1.600     21
            0  0  0  5     1.100     22
            1  0  0  0  2240.000     23
            0  1  0  0  2240.000     24
            0  0  1  0  2240.000     25
            1  0  0  0   610.000     26
            0  1  0  0   610.000     27
            0  0  1  0   610.000     28
            1  0  0  0   195.000     29
            0  1  0  0   195.000     30
            0  0  1  0   195.000     31
            1  0  0  0    80.250     32
            0  1  0  0    80.250     33
            0  0  1  0    80.250     34
            1  0  0  0    44.900     35
            0  1  0  0    44.900     36
            0  0  1  0    44.900     37
            1  0  0  0    34.700     38
            0  1  0  0    34.700     39
            0  0  1  0    34.700     40
            1  0  0  1    37.250     41
            0  1  0  1    37.250     42
            0  0  1  1    37.250     43
            1  0  0  1    22.150     44
            0  1  0  1    22.150     45
            0  0  1  1    22.150     46
            1  0  0  1    17.350     47
            0  1  0  1    17.350     48
            0  0  1  1    17.350     49
            1  0  0  2    17.100     50
            0  1  0  2    17.100     51
            0  0  1  2    17.100     52
            1  0  0  2    11.400     53
            0  1  0  2    11.400     54
            0  0  1  2    11.400     55
            1  0  0  2     8.550     56
            0  1  0  2     8.550     57
            0  0  1  2     8.550     58
            1  0  0  3     6.550     59
            0  1  0  3     6.550     60
            0  0  1  3     6.550     61
            1  0  0  3     4.550     62
            0  1  0  3     4.550     63
            0  0  1  3     4.550     64
            1  0  0  3     3.200     65
            0  1  0  3     3.200     66
            0  0  1  3     3.200     67
            1  0  0  4     2.600     68
            0  1  0  4     2.600     69
            0  0  1  4     2.600     70
            1  0  0  4     1.600     71
            0  1  0  4     1.600     72
            0  0  1  4     1.600     73
            1  0  0  4     1.100     74
            0  1  0  4     1.100     75
            0  0  1  4     1.100     76
            2  0  0  0    67.750     77
            1  1  0  0    67.750     78
            1  0  1  0    67.750     79
            0  2  0  0    67.750     80
            0  1  1  0    67.750     81
            0  0  2  0    67.750     82
            2  0  0  0    31.650     83
            1  1  0  0    31.650     84
            1  0  1  0    31.650     85
            0  2  0  0    31.650     86
            0  1  1  0    31.650     87
            0  0  2  0    31.650     88
            2  0  0  0    21.200     89
            1  1  0  0    21.200     90
            1  0  1  0    21.200     91
            0  2  0  0    21.200     92
            0  1  1  0    21.200     93
            0  0  2  0    21.200     94
            2  0  0  0    15.850     95
            1  1  0  0    15.850     96
            1  0  1  0    15.850     97
            0  2  0  0    15.850     98
            0  1  1  0    15.850     99
            0  0  2  0    15.850    100
            2  0  0  1    14.600    101
            1  1  0  1    14.600    102
            1  0  1  1    14.600    103
            0  2  0  1    14.600    104
            0  1  1  1    14.600    105
            0  0  2  1    14.600    106
            2  0  0  1     9.900    107
            1  1  0  1     9.900    108
            1  0  1  1     9.900    109
            0  2  0  1     9.900    110
            0  1  1  1     9.900    111
            0  0  2  1     9.900    112
            2  0  0  1     7.050    113
            1  1  0  1     7.050    114
            1  0  1  1     7.050    115
            0  2  0  1     7.050    116
            0  1  1  1     7.050    117
            0  0  2  1     7.050    118
            2  0  0  2     5.550    119
            1  1  0  2     5.550    120
            1  0  1  2     5.550    121
            0  2  0  2     5.550    122
            0  1  1  2     5.550    123
            0  0  2  2     5.550    124
            2  0  0  2     3.650    125
            1  1  0  2     3.650    126
            1  0  1  2     3.650    127
            0  2  0  2     3.650    128
            0  1  1  2     3.650    129
            0  0  2  2     3.650    130
            2  0  0  2     2.300    131
            1  1  0  2     2.300    132
            1  0  1  2     2.300    133
            0  2  0  2     2.300    134
            0  1  1  2     2.300    135
            0  0  2  2     2.300    136
            2  0  0  2     1.450    137
            1  1  0  2     1.450    138
            1  0  1  2     1.450    139
            0  2  0  2     1.450    140
            0  1  1  2     1.450    141
            0  0  2  2     1.450    142
            2  0  0  3     1.100    143
            1  1  0  3     1.100    144
            1  0  1  3     1.100    145
            0  2  0  3     1.100    146
            0  1  1  3     1.100    147
            0  0  2  3     1.100    148
            3  0  0  0    21.250    149
            2  1  0  0    21.250    150
            2  0  1  0    21.250    151
            1  2  0  0    21.250    152
            1  1  1  0    21.250    153
            1  0  2  0    21.250    154
            0  3  0  0    21.250    155
            0  2  1  0    21.250    156
            0  1  2  0    21.250    157
            0  0  3  0    21.250    158
            3  0  0  0    12.800    159
            2  1  0  0    12.800    160
            2  0  1  0    12.800    161
            1  2  0  0    12.800    162
            1  1  1  0    12.800    163
            1  0  2  0    12.800    164
            0  3  0  0    12.800    165
            0  2  1  0    12.800    166
            0  1  2  0    12.800    167
            0  0  3  0    12.800    168
            3  0  0  0     7.650    169
            2  1  0  0     7.650    170
            2  0  1  0     7.650    171
            1  2  0  0     7.650    172
            1  1  1  0     7.650    173
            1  0  2  0     7.650    174
            0  3  0  0     7.650    175
            0  2  1  0     7.650    176
            0  1  2  0     7.650    177
            0  0  3  0     7.650    178
            3  0  0  0     4.600    179
            2  1  0  0     4.600    180
            2  0  1  0     4.600    181
            1  2  0  0     4.600    182
            1  1  1  0     4.600    183
            1  0  2  0     4.600    184
            0  3  0  0     4.600    185
            0  2  1  0     4.600    186
            0  1  2  0     4.600    187
            0  0  3  0     4.600    188
            3  0  0  1     2.800    189
            2  1  0  1     2.800    190
            2  0  1  1     2.800    191
            1  2  0  1     2.800    192
            1  1  1  1     2.800    193
            1  0  2  1     2.800    194
            0  3  0  1     2.800    195
            0  2  1  1     2.800    196
            0  1  2  1     2.800    197
            0  0  3  1     2.800    198
            3  0  0  1     1.400    199
            2  1  0  1     1.400    200
            2  0  1  1     1.400    201
            1  2  0  1     1.400    202
            1  1  1  1     1.400    203
            1  0  2  1     1.400    204
            0  3  0  1     1.400    205
            0  2  1  1     1.400    206
            0  1  2  1     1.400    207
            0  0  3  1     1.400    208

 Total number of charge fitting functions (nprimf)       535
 Total number of Cartesian basis functions (naos)        208
 Total number of Cartesian core functions  (ncos)          0



 BAS: List of all Elementary Cartesian Basis Functions
 =====================================================

 The numbering in the list below (to the right of the function characteristics) is referred
 to in print-outs of MO eigenvectors and Mulliken populations in the BAS representation
 (as contrasted to the SFO representation).

 Notes:
 1. The functions are characterized by a polynomial prefactor (powers of x,y,z and r) and
    an exponential decay factor alpha.
 2. Since the basis sets are specific for an atom TYPE, the individual functions occur on
    all atoms of that type.
 3. The word 'Core' in the left margin signals that it is a Core Function (CF) : not a
    degree of freedom in the valence set, but only used to ensure orthogonalization of
    the other valence basis functions on the frozen Core Orbitals.


 (power of) X  Y  Z  R     Alpha  on Atom
            ==========     =====     ==========

 Hg                                   1
                                  ---------------------------------------------------------------------------
            0  0  0  0 10000.000      1
            0  0  0  0  2240.000      2
            0  0  0  0   710.000      3
            0  0  0  0   275.000      4
            0  0  0  0   128.000      5
            0  0  0  0    86.900      6
            0  0  0  1    75.050      7
            0  0  0  1    43.500      8
            0  0  0  1    36.450      9
            0  0  0  2    30.000     10
            0  0  0  2    23.400     11
            0  0  0  2    18.750     12
            0  0  0  3    17.700     13
            0  0  0  3    12.400     14
            0  0  0  3     9.550     15
            0  0  0  4     7.400     16
            0  0  0  4     5.350     17
            0  0  0  4     4.000     18
            0  0  0  5     3.350     19
            0  0  0  5     2.350     20
            0  0  0  5     1.600     21
            0  0  0  5     1.100     22
            1  0  0  0  2240.000     23
            0  1  0  0  2240.000     24
            0  0  1  0  2240.000     25
            1  0  0  0   610.000     26
            0  1  0  0   610.000     27
            0  0  1  0   610.000     28
            1  0  0  0   195.000     29
            0  1  0  0   195.000     30
            0  0  1  0   195.000     31
            1  0  0  0    80.250     32
            0  1  0  0    80.250     33
            0  0  1  0    80.250     34
            1  0  0  0    44.900     35
            0  1  0  0    44.900     36
            0  0  1  0    44.900     37
            1  0  0  0    34.700     38
            0  1  0  0    34.700     39
            0  0  1  0    34.700     40
            1  0  0  1    37.250     41
            0  1  0  1    37.250     42
            0  0  1  1    37.250     43
            1  0  0  1    22.150     44
            0  1  0  1    22.150     45
            0  0  1  1    22.150     46
            1  0  0  1    17.350     47
            0  1  0  1    17.350     48
            0  0  1  1    17.350     49
            1  0  0  2    17.100     50
            0  1  0  2    17.100     51
            0  0  1  2    17.100     52
            1  0  0  2    11.400     53
            0  1  0  2    11.400     54
            0  0  1  2    11.400     55
            1  0  0  2     8.550     56
            0  1  0  2     8.550     57
            0  0  1  2     8.550     58
            1  0  0  3     6.550     59
            0  1  0  3     6.550     60
            0  0  1  3     6.550     61
            1  0  0  3     4.550     62
            0  1  0  3     4.550     63
            0  0  1  3     4.550     64
            1  0  0  3     3.200     65
            0  1  0  3     3.200     66
            0  0  1  3     3.200     67
            1  0  0  4     2.600     68
            0  1  0  4     2.600     69
            0  0  1  4     2.600     70
            1  0  0  4     1.600     71
            0  1  0  4     1.600     72
            0  0  1  4     1.600     73
            1  0  0  4     1.100     74
            0  1  0  4     1.100     75
            0  0  1  4     1.100     76
            2  0  0  0    67.750     77
            1  1  0  0    67.750     78
            1  0  1  0    67.750     79
            0  2  0  0    67.750     80
            0  1  1  0    67.750     81
            0  0  2  0    67.750     82
            2  0  0  0    31.650     83
            1  1  0  0    31.650     84
            1  0  1  0    31.650     85
            0  2  0  0    31.650     86
            0  1  1  0    31.650     87
            0  0  2  0    31.650     88
            2  0  0  0    21.200     89
            1  1  0  0    21.200     90
            1  0  1  0    21.200     91
            0  2  0  0    21.200     92
            0  1  1  0    21.200     93
            0  0  2  0    21.200     94
            2  0  0  0    15.850     95
            1  1  0  0    15.850     96
            1  0  1  0    15.850     97
            0  2  0  0    15.850     98
            0  1  1  0    15.850     99
            0  0  2  0    15.850    100
            2  0  0  1    14.600    101
            1  1  0  1    14.600    102
            1  0  1  1    14.600    103
            0  2  0  1    14.600    104
            0  1  1  1    14.600    105
            0  0  2  1    14.600    106
            2  0  0  1     9.900    107
            1  1  0  1     9.900    108
            1  0  1  1     9.900    109
            0  2  0  1     9.900    110
            0  1  1  1     9.900    111
            0  0  2  1     9.900    112
            2  0  0  1     7.050    113
            1  1  0  1     7.050    114
            1  0  1  1     7.050    115
            0  2  0  1     7.050    116
            0  1  1  1     7.050    117
            0  0  2  1     7.050    118
            2  0  0  2     5.550    119
            1  1  0  2     5.550    120
            1  0  1  2     5.550    121
            0  2  0  2     5.550    122
            0  1  1  2     5.550    123
            0  0  2  2     5.550    124
            2  0  0  2     3.650    125
            1  1  0  2     3.650    126
            1  0  1  2     3.650    127
            0  2  0  2     3.650    128
            0  1  1  2     3.650    129
            0  0  2  2     3.650    130
            2  0  0  2     2.300    131
            1  1  0  2     2.300    132
            1  0  1  2     2.300    133
            0  2  0  2     2.300    134
            0  1  1  2     2.300    135
            0  0  2  2     2.300    136
            2  0  0  2     1.450    137
            1  1  0  2     1.450    138
            1  0  1  2     1.450    139
            0  2  0  2     1.450    140
            0  1  1  2     1.450    141
            0  0  2  2     1.450    142
            2  0  0  3     1.100    143
            1  1  0  3     1.100    144
            1  0  1  3     1.100    145
            0  2  0  3     1.100    146
            0  1  1  3     1.100    147
            0  0  2  3     1.100    148
            3  0  0  0    21.250    149
            2  1  0  0    21.250    150
            2  0  1  0    21.250    151
            1  2  0  0    21.250    152
            1  1  1  0    21.250    153
            1  0  2  0    21.250    154
            0  3  0  0    21.250    155
            0  2  1  0    21.250    156
            0  1  2  0    21.250    157
            0  0  3  0    21.250    158
            3  0  0  0    12.800    159
            2  1  0  0    12.800    160
            2  0  1  0    12.800    161
            1  2  0  0    12.800    162
            1  1  1  0    12.800    163
            1  0  2  0    12.800    164
            0  3  0  0    12.800    165
            0  2  1  0    12.800    166
            0  1  2  0    12.800    167
            0  0  3  0    12.800    168
            3  0  0  0     7.650    169
            2  1  0  0     7.650    170
            2  0  1  0     7.650    171
            1  2  0  0     7.650    172
            1  1  1  0     7.650    173
            1  0  2  0     7.650    174
            0  3  0  0     7.650    175
            0  2  1  0     7.650    176
            0  1  2  0     7.650    177
            0  0  3  0     7.650    178
            3  0  0  0     4.600    179
            2  1  0  0     4.600    180
            2  0  1  0     4.600    181
            1  2  0  0     4.600    182
            1  1  1  0     4.600    183
            1  0  2  0     4.600    184
            0  3  0  0     4.600    185
            0  2  1  0     4.600    186
            0  1  2  0     4.600    187
            0  0  3  0     4.600    188
            3  0  0  1     2.800    189
            2  1  0  1     2.800    190
            2  0  1  1     2.800    191
            1  2  0  1     2.800    192
            1  1  1  1     2.800    193
            1  0  2  1     2.800    194
            0  3  0  1     2.800    195
            0  2  1  1     2.800    196
            0  1  2  1     2.800    197
            0  0  3  1     2.800    198
            3  0  0  1     1.400    199
            2  1  0  1     1.400    200
            2  0  1  1     1.400    201
            1  2  0  1     1.400    202
            1  1  1  1     1.400    203
            1  0  2  1     1.400    204
            0  3  0  1     1.400    205
            0  2  1  1     1.400    206
            0  1  2  1     1.400    207
            0  0  3  1     1.400    208
1
 ***************************************************************************************************



                                              ***********************
                                              *  T E C H N I C A L  *
                                              ***********************
  



 =============================================================
 P A R A L L E L I Z A T I O N  and  V E C T O R I Z A T I O N
 =============================================================
  
 Nr of parallel processes:                                1
 Maximum vector length in NumInt loops:                 128



 ===============
 I O  vs.  C P U  ***  (store numerical data on disk or recalculate)  ***
 ===============
  
 Basis functions:   recalculate when needed
 Fit functions:     recalculate when needed

 IO buffersize (Mb):                                     64.000000



 =====================
 S C F   U P D A T E S
 =====================
  
 Max. nr. of cycles:                               100
 Convergence criterion:                              0.0000000100
   secondary criterion:                              0.0000000100

 Mix parameter (when DIIS does not apply):           0.2000000000
 Special mix parameter for the first cycle:          1.0000000000


 DIIS (Direct Inversion in Iteration Space)
    Replace damping when SCF Error is below:         0.5000000000
    Apply anyway after SCF cycle:
                                                     5
    (Max.) nr. of expansion vectors:                10

    Upperbound on expansion coefficients:            5.0000000000
    (when exceeded, IterationSpace is re-built)
    2nd Upperbound on coefficients:                 25.0000000000
    (when exceeded, simple damping will be used)
 Automatic ElectronSmearing (in case of problematic SCF convergence) disabled



 =================
 P R E C I S I O N  ***  (General: NumInt, NeglectFunctionTails, ...)  ***
 =================
  

 NumInt:           Target precision:                10.0000000000
 -------           Initial precision:               10.0000000000
                   Min. precision (optimization):   10.0000000000

 Neglect Functions:          Basis functions:        0.1000000000E-11
 ------------------          Fit functions:          0.1000000000E-11



 ===========================
 L I N E A R   S C A L I N G
 ===========================
  

 Cut-off radii density fit:                        0.1000000000E-13
 Overlap cut-off criterion AO matrix elements:     0.1000000000E-11
 Cut-offs for Coulomb potential and fitted density:0.1000000000E-13
 Cut-off criterion for Coulomb multipole terms:    0.1000000000E-13
 Progressive Convergence parameter:                 0.000000000    
1
 ***************************************************************************************************



                                            ***************************
                                            *  C O M P U T A T I O N  *
                                            ***************************
  

 Number of elements of the density matrix on this node (used, total):     21736     21736



 ====================================================
 Numerical Integration : Voronoi Polyhedra (Te Velde)
 ====================================================
  
 General Accuracy Parameter :                         10.00

 Symmetry used in the points section:  ATOM  


 Summary of the Symmetry Unique Points:
 --------------------------------------
    Nr. of used Symmetry Operators                     1

    Points in the Atomic Spheres                     156
    Points in the Atomic Polyhedra                     0
    Points in the Outer Region                         0
    ----------------------------------------------------
    Total                                            156

    Sum of Weights                                270838.223067

 Total nr. of points:        156
 Nr. of blocks:                2
 Block length:                78
 Nr. of dummy points:          0


 Test of Precision of the Numerical Integration Grid
 ===================================================

 Integral of the Total Core Density:                   0.00000000000000



 =====
 S C F
 =====
  

 CYCLE    1
 orbitals (Q,E):
 ---------------
 S :1...16           ( 2.00 -3486.8517)  ( 2.00  -894.0752)  ( 2.00  -387.8928)  ( 2.00  -214.3573)
                     ( 2.00  -135.5231)  ( 2.00   -93.2904)  ( 0.00   -68.0469)  ( 0.00   -51.5344)
                     ( 0.00   -39.5790)  ( 0.00   -30.2345)  ( 0.00   -23.0701)  ( 0.00   -18.7018)
                     ( 0.00   -14.6711)  ( 0.00   -10.0974)  ( 0.00   119.7641)  ( 0.00   619.8843)
 P :1...14           ( 6.00  -831.8344)  ( 6.00  -369.4182)  ( 6.00  -206.6511)  ( 6.00  -131.6100)
                     ( 0.00   -90.9733)  ( 0.00   -66.2252)  ( 0.00   -49.3433)  ( 0.00   -37.1659)
                     ( 0.00   -29.3305)  ( 0.00   -22.9841)  ( 0.00   -16.2507)  ( 0.00   -10.6216)
                     ( 0.00   136.1949)  ( 0.00   793.9664)
 D :1...12           (10.00  -358.6873)  (10.00  -202.1257)  (10.00  -129.3037)  ( 0.00   -89.5813)
                     ( 0.00   -65.4451)  ( 0.00   -49.7472)  ( 0.00   -37.4998)  ( 0.00   -26.4196)
                     ( 0.00   -17.5041)  ( 0.00   -11.0198)  ( 0.00   105.8301)  ( 0.00  1412.2468)
 F :1...6            (14.00  -200.2743)  ( 0.00  -127.9568)  ( 0.00   -88.1643)  ( 0.00   -59.5219)
                     ( 0.00   -35.7436)  ( 0.00   -18.8406)

 CYCLE    2
 d-Pmat  mean:  0.29E+02
 imax=     11: -0.49E+03
 orbitals (Q,E):
 ---------------
 S :1...7            ( 2.00 -2906.7975)  ( 2.00  -410.1942)  ( 2.00   -42.7646)  ( 2.00    -0.0247)
                     ( 2.00     0.0953)  ( 2.00     0.3050)  ( 0.00     0.8400)
 P :1...5            ( 6.00  -332.3948)  ( 6.00   -22.9003)  ( 6.00     0.0215)  ( 6.00     0.2336)
                     ( 0.00     0.7356)
 D :1...4            (10.00     0.0834)  (10.00     0.4038)  (10.00     1.2409)  ( 0.00     1.8801)
 F :1...2            (14.00     0.4991)  ( 0.00     2.5143)

 CYCLE    3
 d-Pmat  mean:  0.57E+01
 imax=     12: -0.13E+03
 orbitals (Q,E):
 ---------------
 S :1...7            ( 2.00 -2968.4624)  ( 2.00  -469.3293)  ( 2.00   -85.6833)  ( 2.00   -16.7448)
                     ( 2.00    -5.1887)  ( 2.00    -1.6529)  ( 0.00    -0.4132)
 P :1...5            ( 6.00  -392.5207)  ( 6.00   -64.7284)  ( 6.00   -11.9132)  ( 6.00    -3.7415)
                     ( 0.00    -1.1105)
 D :1...4            (10.00   -39.2654)  (10.00    -6.2561)  (10.00    -1.9181)  ( 0.00    -0.4454)
 F :1...2            (14.00    -2.0007)  ( 0.00    -0.3720)

 CYCLE    4
 d-Pmat  mean:  0.19E+00
 imax=     19: -0.11E+01
 orbitals (Q,E):
 ---------------
 S :1...7            ( 2.00 -2996.7561)  ( 2.00  -495.1136)  ( 2.00  -102.9221)  ( 2.00   -23.3322)
                     ( 2.00    -6.4773)  ( 2.00    -1.7786)  ( 0.00    -0.3974)
 P :1...5            ( 6.00  -418.9153)  ( 6.00   -81.6649)  ( 6.00   -17.4352)  ( 6.00    -4.6827)
                     ( 0.00    -1.1823)
 D :1...4            (10.00   -56.8376)  (10.00   -10.2070)  (10.00    -2.4766)  ( 0.00    -0.4848)
 F :1...2            (14.00    -3.2703)  ( 0.00    -0.5460)

 CYCLE    5
 d-Pmat  mean:  0.90E+00
 imax=     49:  0.11E+02
 orbitals (Q,E):
 ---------------
 S :1...7            ( 2.00 -3088.9750)  ( 2.00  -578.8033)  ( 2.00  -159.2035)  ( 2.00   -48.0970)
                     ( 2.00   -13.4102)  ( 2.00    -3.6386)  ( 0.00    -0.9977)
 P :1...5            ( 6.00  -504.7012)  ( 6.00  -137.6308)  ( 6.00   -40.2756)  ( 6.00   -10.5527)
                     ( 0.00    -2.7314)
 D :1...4            (10.00  -116.3158)  (10.00   -31.7092)  (10.00    -7.1979)  ( 0.00    -1.6466)
 F :1...2            (14.00   -23.0119)  ( 0.00    -3.7036)

 CYCLE    6
 d-Pmat  mean:  0.79E+00
 imax=     49: -0.95E+01
 orbitals (Q,E):
 ---------------
 S :1...7            ( 2.00 -3046.5982)  ( 2.00  -536.1078)  ( 2.00  -123.6421)  ( 2.00   -24.2520)
                     ( 2.00    -2.1408)  ( 2.00    -0.1576)  ( 0.00     0.0834)
 P :1...5            ( 6.00  -461.5144)  ( 6.00  -102.1062)  ( 6.00   -17.2793)  ( 6.00    -0.7701)
                     ( 0.00    -0.0113)
 D :1...4            (10.00   -79.4949)  (10.00    -9.0007)  (10.00     0.0508)  ( 0.00     0.1927)
 F :1...2            (14.00     0.1073)  ( 0.00     0.3260)

 CYCLE    7
 d-Pmat  mean:  0.26E+00
 imax=     11: -0.28E+01
 orbitals (Q,E):
 ---------------
 S :1...7            ( 2.00 -3057.8442)  ( 2.00  -548.5596)  ( 2.00  -136.2460)  ( 2.00   -35.3251)
                     ( 2.00    -9.6490)  ( 2.00    -2.9422)  ( 0.00    -0.7938)
 P :1...5            ( 6.00  -473.9559)  ( 6.00  -114.6956)  ( 6.00   -28.1524)  ( 6.00    -7.4156)
                     ( 0.00    -2.1616)
 D :1...4            (10.00   -92.1548)  (10.00   -19.7092)  (10.00    -4.7008)  ( 0.00    -1.2007)
 F :1...2            (14.00   -10.3886)  ( 0.00    -2.0140)

 CYCLE    8
 d-Pmat  mean:  0.17E+00
 imax=     18: -0.34E+01
 orbitals (Q,E):
 ---------------
 S :1...7            ( 2.00 -3050.0200)  ( 2.00  -540.1492)  ( 2.00  -127.9686)  ( 2.00   -27.9625)
                     ( 2.00    -4.4123)  ( 2.00    -0.5096)  ( 0.00    -0.0032)
 P :1...5            ( 6.00  -465.5251)  ( 6.00  -106.4224)  ( 6.00   -20.9139)  ( 6.00    -2.5955)
                     ( 0.00    -0.1925)
 D :1...4            (10.00   -83.8240)  (10.00   -12.5692)  (10.00    -0.6324)  ( 0.00     0.0566)
 F :1...2            (14.00    -3.3269)  ( 0.00     0.2574)

 CYCLE    9
 d-Pmat  mean:  0.22E-01
 imax=     19: -0.32E+00
 orbitals (Q,E):
 ---------------
 S :1...7            ( 2.00 -3050.1313)  ( 2.00  -540.2523)  ( 2.00  -128.0252)  ( 2.00   -27.9433)
                     ( 2.00    -4.0756)  ( 2.00    -0.1466)  ( 0.00     0.0642)
 P :1...5            ( 6.00  -465.6313)  ( 6.00  -106.4788)  ( 6.00   -20.8816)  ( 6.00    -2.1915)
                     ( 0.00     0.0166)
 D :1...4            (10.00   -83.8864)  (10.00   -12.5234)  (10.00    -0.1629)  ( 0.00     0.1161)
 F :1...2            (14.00    -3.2560)  ( 0.00     0.4247)

 CYCLE   10
 d-Pmat  mean:  0.76E-02
 imax=     21: -0.75E-01
 orbitals (Q,E):
 ---------------
 S :1...7            ( 2.00 -3050.3372)  ( 2.00  -540.4724)  ( 2.00  -128.2452)  ( 2.00   -28.1794)
                     ( 2.00    -4.3146)  ( 2.00    -0.2337)  ( 0.00     0.0356)
 P :1...5            ( 6.00  -465.8522)  ( 6.00  -106.6992)  ( 6.00   -21.1196)  ( 6.00    -2.4192)
                     ( 0.00    -0.0251)
 D :1...4            (10.00   -84.1067)  (10.00   -12.7627)  (10.00    -0.3428)  ( 0.00     0.0918)
 F :1...2            (14.00    -3.4947)  ( 0.00     0.3830)

 CYCLE   11
 d-Pmat  mean:  0.83E-03
 imax=     14:  0.93E-02
 orbitals (Q,E):
 ---------------
 S :1...7            ( 2.00 -3050.3911)  ( 2.00  -540.5301)  ( 2.00  -128.2993)  ( 2.00   -28.2158)
                     ( 2.00    -4.3356)  ( 2.00    -0.2513)  ( 0.00     0.0261)
 P :1...5            ( 6.00  -465.9100)  ( 6.00  -106.7531)  ( 6.00   -21.1543)  ( 6.00    -2.4401)
                     ( 0.00    -0.0383)
 D :1...4            (10.00   -84.1618)  (10.00   -12.7962)  (10.00    -0.3635)  ( 0.00     0.0822)
 F :1...2            (14.00    -3.5277)  ( 0.00     0.3696)

 CYCLE   12
 d-Pmat  mean:  0.25E-03
 imax=     49: -0.27E-02
 orbitals (Q,E):
 ---------------
 S :1...7            ( 2.00 -3050.3907)  ( 2.00  -540.5290)  ( 2.00  -128.2981)  ( 2.00   -28.2170)
                     ( 2.00    -4.3364)  ( 2.00    -0.2504)  ( 0.00     0.0269)
 P :1...5            ( 6.00  -465.9090)  ( 6.00  -106.7520)  ( 6.00   -21.1557)  ( 6.00    -2.4404)
                     ( 0.00    -0.0376)
 D :1...4            (10.00   -84.1605)  (10.00   -12.7976)  (10.00    -0.3629)  ( 0.00     0.0828)
 F :1...2            (14.00    -3.5289)  ( 0.00     0.3703)

 CYCLE   13
 d-Pmat  mean:  0.14E-04
 imax=     20: -0.28E-03
 orbitals (Q,E):
 ---------------
 S :1...7            ( 2.00 -3050.3904)  ( 2.00  -540.5287)  ( 2.00  -128.2978)  ( 2.00   -28.2167)
                     ( 2.00    -4.3361)  ( 2.00    -0.2502)  ( 0.00     0.0270)
 P :1...5            ( 6.00  -465.9087)  ( 6.00  -106.7516)  ( 6.00   -21.1553)  ( 6.00    -2.4401)
                     ( 0.00    -0.0374)
 D :1...4            (10.00   -84.1602)  (10.00   -12.7972)  (10.00    -0.3626)  ( 0.00     0.0830)
[...]
 <Jan01-2013> <08:40:29>    2  ErrMat   0.01307034  MaxEl  0.00323645
 <Jan01-2013> <08:40:41>    3  ErrMat   0.00833076  MaxEl  0.00216608
 <Jan01-2013> <08:40:56>    4  ErrMat   0.00717119  MaxEl  0.00100654
 <Jan01-2013> <08:41:08>    5  ErrMat   0.00187690  MaxEl -0.00031081
 <Jan01-2013> <08:41:18>    6  ErrMat   0.00050047  MaxEl -0.00009130
 <Jan01-2013> <08:41:30>    7  ErrMat   0.00019046  MaxEl  0.00003017
 <Jan01-2013> <08:41:42>    8  ErrMat   0.00004201  MaxEl  0.00000644
 <Jan01-2013> <08:41:53>    9  ErrMat   0.00001088  MaxEl -0.00000111
 <Jan01-2013> <08:42:05>   10  ErrMat   0.00000578  MaxEl -0.00000056
 <Jan01-2013> <08:42:11>  SCF converged
 <Jan01-2013> <08:42:16>   11  ErrMat   0.00000102  MaxEl  0.00000012
 <Jan01-2013> <08:42:27>  >>>> TOTEN
 <Jan01-2013> <08:42:39>  >>>> POPAN
 <Jan01-2013> <08:42:40>  >>>> DEBYE
 <Jan01-2013> <08:42:40>  >>>> AMETS
 <Jan01-2013> <08:42:40>  >>>> ENGRAD
  Coordinates in Frequency Displacement 88
    Atom         X           Y           Z   (Angstrom)
    1.H        -3.135368    1.771715   -0.522905
    2.O        -3.005762    0.805790   -0.522176
    3.H        -3.959070    0.222393   -0.299165
    4.H         3.090970   -1.736306   -0.441757
    5.O         2.901825   -0.779726   -0.453180
    6.H         3.840012   -0.162818   -0.287552
    7.H        -5.435626   -0.889240   -0.901294
    8.O        -5.001336   -0.526720   -0.107009
    9.H        -5.701808   -0.220099    0.497106
   10.H        -0.825172    0.223302    1.749002
   11.O        -0.773979    0.231701    0.774858
   12.H        -2.174871    0.566495    0.006538
   13.H         5.336656    0.874479   -0.969748
   14.O         4.869918    0.621651   -0.151213
   15.H         5.547538    0.395337    0.509172
   16.Hg        1.056215   -0.282265    0.237532
 <Jan01-2013> <08:45:30>  >>>> CORORT
 <Jan01-2013> <08:45:30>  >>>> FITINT
 <Jan01-2013> <08:45:32>  >>>> CLSMAT
 <Jan01-2013> <08:45:36>  >>>> ORTHON
 <Jan01-2013> <08:45:36>  >>>> GENPT
 <Jan01-2013> <08:45:36>  Acc.Num.Int.=   6.000
 <Jan01-2013> <08:45:37>  Reusing previous cell geometry for gradient smoothing.
 <Jan01-2013> <08:45:37>  Block Length= 128
 <Jan01-2013> <08:45:37>  >>>> PTBAS
 <Jan01-2013> <08:47:17>  >>>> CYCLE
 <Jan01-2013> <08:47:21>    1
 <Jan01-2013> <08:47:33>    2  ErrMat   0.00004087  MaxEl -0.00000945
 <Jan01-2013> <08:47:44>    3  ErrMat   0.00002796  MaxEl -0.00000649
 <Jan01-2013> <08:47:56>    4  ErrMat   0.00002352  MaxEl -0.00000458
 <Jan01-2013> <08:48:11>    5  ErrMat   0.00000447  MaxEl -0.00000086
 <Jan01-2013> <08:48:18>  SCF converged
 <Jan01-2013> <08:48:24>    6  ErrMat   0.00000242  MaxEl -0.00000045
 <Jan01-2013> <08:48:35>  >>>> TOTEN
 <Jan01-2013> <08:48:48>  >>>> POPAN
 <Jan01-2013> <08:48:48>  >>>> DEBYE
 <Jan01-2013> <08:48:48>  >>>> AMETS
 <Jan01-2013> <08:48:49>  >>>> ENGRAD
  Coordinates in Frequency Displacement 89
    Atom         X           Y           Z   (Angstrom)
    1.H        -3.135368    1.771715   -0.522905
    2.O        -3.005762    0.805790   -0.522176
    3.H        -3.959070    0.222393   -0.299165
    4.H         3.090970   -1.736306   -0.441757
    5.O         2.901825   -0.779726   -0.453180
    6.H         3.840012   -0.162818   -0.287552
    7.H        -5.435626   -0.889240   -0.901294
    8.O        -5.001336   -0.526720   -0.107009
    9.H        -5.701808   -0.220099    0.497106
   10.H        -0.825172    0.223302    1.749002
   11.O        -0.773979    0.231701    0.774858
   12.H        -2.174871    0.566495    0.006538
   13.H         5.336656    0.874479   -0.969748
   14.O         4.869918    0.621651   -0.151213
   15.H         5.547538    0.385337    0.499172
   16.Hg        1.056215   -0.282265    0.237532
 <Jan01-2013> <08:52:43>  >>>> CORORT
 <Jan01-2013> <08:52:43>  >>>> FITINT
 <Jan01-2013> <08:52:45>  >>>> CLSMAT
 <Jan01-2013> <08:52:49>  >>>> ORTHON
 <Jan01-2013> <08:52:50>  >>>> GENPT
 <Jan01-2013> <08:52:50>  Acc.Num.Int.=   6.000
 <Jan01-2013> <08:52:50>  Reusing previous cell geometry for gradient smoothing.
 <Jan01-2013> <08:52:50>  Block Length= 128
 <Jan01-2013> <08:52:51>  >>>> PTBAS
 <Jan01-2013> <08:54:32>  >>>> CYCLE
 <Jan01-2013> <08:54:36>    1
 <Jan01-2013> <08:54:49>    2  ErrMat   0.01672254  MaxEl  0.00373875
 <Jan01-2013> <08:55:02>    3  ErrMat   0.00938709  MaxEl  0.00202965
 <Jan01-2013> <08:55:18>    4  ErrMat   0.00527177  MaxEl -0.00122778
 <Jan01-2013> <08:55:31>    5  ErrMat   0.00093460  MaxEl  0.00019955
 <Jan01-2013> <08:55:44>    6  ErrMat   0.00059100  MaxEl -0.00012639
 <Jan01-2013> <08:55:57>    7  ErrMat   0.00016444  MaxEl  0.00002406
 <Jan01-2013> <08:56:09>    8  ErrMat   0.00004034  MaxEl -0.00000881
 <Jan01-2013> <08:56:22>    9  ErrMat   0.00001871  MaxEl  0.00000335
 <Jan01-2013> <08:56:36>   10  ErrMat   0.00000321  MaxEl -0.00000033
 <Jan01-2013> <08:56:44>  SCF converged
 <Jan01-2013> <08:56:50>   11  ErrMat   0.00000155  MaxEl -0.00000018
 <Jan01-2013> <08:57:02>  >>>> TOTEN
 <Jan01-2013> <08:57:16>  >>>> POPAN
 <Jan01-2013> <08:57:16>  >>>> DEBYE
 <Jan01-2013> <08:57:16>  >>>> AMETS
 <Jan01-2013> <08:57:17>  >>>> ENGRAD
  Coordinates in Frequency Displacement 90
    Atom         X           Y           Z   (Angstrom)
    1.H        -3.135368    1.771715   -0.522905
    2.O        -3.005762    0.805790   -0.522176
    3.H        -3.959070    0.222393   -0.299165
    4.H         3.090970   -1.736306   -0.441757
    5.O         2.901825   -0.779726   -0.453180
    6.H         3.840012   -0.162818   -0.287552
    7.H        -5.435626   -0.889240   -0.901294
    8.O        -5.001336   -0.526720   -0.107009
    9.H        -5.701808   -0.220099    0.497106
   10.H        -0.825172    0.223302    1.749002
   11.O        -0.773979    0.231701    0.774858
   12.H        -2.174871    0.566495    0.006538
   13.H         5.336656    0.874479   -0.969748
   14.O         4.869918    0.621651   -0.151213
   15.H         5.547538    0.385337    0.519172
   16.Hg        1.056215   -0.282265    0.237532
 <Jan01-2013> <09:01:19>  >>>> CORORT
 <Jan01-2013> <09:01:19>  >>>> FITINT
 <Jan01-2013> <09:01:22>  >>>> CLSMAT
 <Jan01-2013> <09:01:26>  >>>> ORTHON
 <Jan01-2013> <09:01:26>  >>>> GENPT
 <Jan01-2013> <09:01:26>  Acc.Num.Int.=   6.000
 <Jan01-2013> <09:01:26>  Reusing previous cell geometry for gradient smoothing.
 <Jan01-2013> <09:01:27>  Block Length= 128
 <Jan01-2013> <09:01:27>  >>>> PTBAS
 <Jan01-2013> <09:02:43>  >>>> CYCLE
 <Jan01-2013> <09:02:46>    1
 <Jan01-2013> <09:02:54>    2  ErrMat   0.00017426  MaxEl -0.00003380
 <Jan01-2013> <09:03:03>    3  ErrMat   0.00008346  MaxEl  0.00001635
 <Jan01-2013> <09:03:13>    4  ErrMat   0.00003296  MaxEl -0.00000484
 <Jan01-2013> <09:03:19>    5  ErrMat   0.00001948  MaxEl -0.00000408
 <Jan01-2013> <09:03:26>    6  ErrMat   0.00000412  MaxEl  0.00000080
 <Jan01-2013> <09:03:29>  SCF converged
 <Jan01-2013> <09:03:33>    7  ErrMat   0.00000288  MaxEl -0.00000061
 <Jan01-2013> <09:03:40>  >>>> TOTEN
 <Jan01-2013> <09:03:47>  >>>> POPAN
 <Jan01-2013> <09:03:47>  >>>> DEBYE
 <Jan01-2013> <09:03:48>  >>>> AMETS
 <Jan01-2013> <09:03:48>  >>>> ENGRAD
  Coordinates in Frequency Displacement 91
    Atom         X           Y           Z   (Angstrom)
    1.H        -3.135368    1.771715   -0.522905
    2.O        -3.005762    0.805790   -0.522176
    3.H        -3.959070    0.222393   -0.299165
    4.H         3.090970   -1.736306   -0.441757
    5.O         2.901825   -0.779726   -0.453180
    6.H         3.840012   -0.162818   -0.287552
    7.H        -5.435626   -0.889240   -0.901294
    8.O        -5.001336   -0.526720   -0.107009
    9.H        -5.701808   -0.220099    0.497106
   10.H        -0.825172    0.223302    1.749002
   11.O        -0.773979    0.231701    0.774858
   12.H        -2.174871    0.566495    0.006538
   13.H         5.336656    0.874479   -0.969748
   14.O         4.869918    0.621651   -0.151213
   15.H         5.547538    0.385337    0.509172
   16.Hg        1.046215   -0.282265    0.237532
 <Jan01-2013> <09:05:09>  >>>> CORORT
 <Jan01-2013> <09:05:10>  >>>> FITINT
 <Jan01-2013> <09:05:12>  >>>> CLSMAT
 <Jan01-2013> <09:05:15>  >>>> ORTHON
 <Jan01-2013> <09:05:16>  >>>> GENPT
 <Jan01-2013> <09:05:16>  Acc.Num.Int.=   6.000
 <Jan01-2013> <09:05:16>  Reusing previous cell geometry for gradient smoothing.
 <Jan01-2013> <09:05:16>  Block Length= 128
 <Jan01-2013> <09:05:17>  >>>> PTBAS
 <Jan01-2013> <09:06:22>  >>>> CYCLE
 <Jan01-2013> <09:06:24>    1
 <Jan01-2013> <09:06:31>    2  ErrMat   0.00921083  MaxEl -0.00169949
 <Jan01-2013> <09:06:43>    3  ErrMat   0.00260617  MaxEl -0.00035748
 <Jan01-2013> <09:06:50>    4  ErrMat   0.00198775  MaxEl  0.00027120
 <Jan01-2013> <09:06:58>    5  ErrMat   0.00039184  MaxEl  0.00006240
 <Jan01-2013> <09:07:05>    6  ErrMat   0.00015855  MaxEl  0.00003391
 <Jan01-2013> <09:07:12>    7  ErrMat   0.00005933  MaxEl -0.00000756
 <Jan01-2013> <09:07:20>    8  ErrMat   0.00001247  MaxEl -0.00000113
 <Jan01-2013> <09:07:27>    9  ErrMat   0.00000334  MaxEl  0.00000052
 <Jan01-2013> <09:07:30>  SCF converged
 <Jan01-2013> <09:07:34>   10  ErrMat   0.00000114  MaxEl -0.00000015
 <Jan01-2013> <09:07:42>  >>>> TOTEN
 <Jan01-2013> <09:07:49>  >>>> POPAN
 <Jan01-2013> <09:07:49>  >>>> DEBYE
 <Jan01-2013> <09:07:50>  >>>> AMETS
 <Jan01-2013> <09:07:50>  >>>> ENGRAD
  Coordinates in Frequency Displacement 92
    Atom         X           Y           Z   (Angstrom)
    1.H        -3.135368    1.771715   -0.522905
    2.O        -3.005762    0.805790   -0.522176
    3.H        -3.959070    0.222393   -0.299165
    4.H         3.090970   -1.736306   -0.441757
    5.O         2.901825   -0.779726   -0.453180
    6.H         3.840012   -0.162818   -0.287552
    7.H        -5.435626   -0.889240   -0.901294
    8.O        -5.001336   -0.526720   -0.107009
    9.H        -5.701808   -0.220099    0.497106
   10.H        -0.825172    0.223302    1.749002
   11.O        -0.773979    0.231701    0.774858
   12.H        -2.174871    0.566495    0.006538
   13.H         5.336656    0.874479   -0.969748
   14.O         4.869918    0.621651   -0.151213
   15.H         5.547538    0.385337    0.509172
   16.Hg        1.066215   -0.282265    0.237532
 <Jan01-2013> <09:09:11>  >>>> CORORT
 <Jan01-2013> <09:09:11>  >>>> FITINT
 <Jan01-2013> <09:09:14>  >>>> CLSMAT
 <Jan01-2013> <09:09:18>  >>>> ORTHON
 <Jan01-2013> <09:09:18>  >>>> GENPT
 <Jan01-2013> <09:09:18>  Acc.Num.Int.=   6.000
 <Jan01-2013> <09:09:18>  Reusing previous cell geometry for gradient smoothing.
 <Jan01-2013> <09:09:18>  Block Length= 128
 <Jan01-2013> <09:09:19>  >>>> PTBAS
 <Jan01-2013> <09:10:33>  >>>> CYCLE
 <Jan01-2013> <09:10:37>    1
 <Jan01-2013> <09:10:45>    2  ErrMat   0.00039115  MaxEl  0.00007431
 <Jan01-2013> <09:10:53>    3  ErrMat   0.00011973  MaxEl  0.00001887
 <Jan01-2013> <09:11:01>    4  ErrMat   0.00011321  MaxEl  0.00001474
 <Jan01-2013> <09:11:11>    5  ErrMat   0.00005089  MaxEl -0.00000889
 <Jan01-2013> <09:11:20>    6  ErrMat   0.00000840  MaxEl -0.00000142
 <Jan01-2013> <09:11:26>    7  ErrMat   0.00000484  MaxEl  0.00000091
 <Jan01-2013> <09:11:29>  SCF converged
 <Jan01-2013> <09:11:32>    8  ErrMat   0.00000043  MaxEl  0.00000005
 <Jan01-2013> <09:11:38>  >>>> TOTEN
 <Jan01-2013> <09:11:46>  >>>> POPAN
 <Jan01-2013> <09:11:46>  >>>> DEBYE
 <Jan01-2013> <09:11:46>  >>>> AMETS
 <Jan01-2013> <09:11:46>  >>>> ENGRAD
  Coordinates in Frequency Displacement 93
    Atom         X           Y           Z   (Angstrom)
    1.H        -3.135368    1.771715   -0.522905
    2.O        -3.005762    0.805790   -0.522176
    3.H        -3.959070    0.222393   -0.299165
    4.H         3.090970   -1.736306   -0.441757
    5.O         2.901825   -0.779726   -0.453180
    6.H         3.840012   -0.162818   -0.287552
    7.H        -5.435626   -0.889240   -0.901294
    8.O        -5.001336   -0.526720   -0.107009
    9.H        -5.701808   -0.220099    0.497106
   10.H        -0.825172    0.223302    1.749002
   11.O        -0.773979    0.231701    0.774858
   12.H        -2.174871    0.566495    0.006538
   13.H         5.336656    0.874479   -0.969748
   14.O         4.869918    0.621651   -0.151213
   15.H         5.547538    0.385337    0.509172
   16.Hg        1.056215   -0.292265    0.237532
 <Jan01-2013> <09:13:02>  >>>> CORORT
 <Jan01-2013> <09:13:02>  >>>> FITINT
 <Jan01-2013> <09:13:04>  >>>> CLSMAT
 <Jan01-2013> <09:13:07>  >>>> ORTHON
 <Jan01-2013> <09:13:07>  >>>> GENPT
 <Jan01-2013> <09:13:07>  Acc.Num.Int.=   6.000
 <Jan01-2013> <09:13:08>  Reusing previous cell geometry for gradient smoothing.
 <Jan01-2013> <09:13:08>  Block Length= 128
 <Jan01-2013> <09:13:08>  >>>> PTBAS
 <Jan01-2013> <09:14:30>  >>>> CYCLE
 <Jan01-2013> <09:14:33>    1
 <Jan01-2013> <09:14:42>    2  ErrMat   0.00605744  MaxEl  0.00113217
 <Jan01-2013> <09:14:49>    3  ErrMat   0.00289271  MaxEl  0.00055287
 <Jan01-2013> <09:14:57>    4  ErrMat   0.00315780  MaxEl -0.00059945
 <Jan01-2013> <09:15:05>    5  ErrMat   0.00028567  MaxEl -0.00003853
 <Jan01-2013> <09:15:16>    6  ErrMat   0.00011638  MaxEl  0.00001846
 <Jan01-2013> <09:15:22>    7  ErrMat   0.00002776  MaxEl -0.00000565
 <Jan01-2013> <09:15:29>    8  ErrMat   0.00001353  MaxEl -0.00000182
 <Jan01-2013> <09:15:35>    9  ErrMat   0.00000273  MaxEl  0.00000045
 <Jan01-2013> <09:15:38>  SCF converged
 <Jan01-2013> <09:15:41>   10  ErrMat   0.00000078  MaxEl -0.00000008
 <Jan01-2013> <09:15:49>  >>>> TOTEN
 <Jan01-2013> <09:15:56>  >>>> POPAN
 <Jan01-2013> <09:15:56>  >>>> DEBYE
 <Jan01-2013> <09:15:56>  >>>> AMETS
 <Jan01-2013> <09:15:56>  >>>> ENGRAD
  Coordinates in Frequency Displacement 94
    Atom         X           Y           Z   (Angstrom)
    1.H        -3.135368    1.771715   -0.522905
    2.O        -3.005762    0.805790   -0.522176
    3.H        -3.959070    0.222393   -0.299165
    4.H         3.090970   -1.736306   -0.441757
    5.O         2.901825   -0.779726   -0.453180
    6.H         3.840012   -0.162818   -0.287552
    7.H        -5.435626   -0.889240   -0.901294
    8.O        -5.001336   -0.526720   -0.107009
    9.H        -5.701808   -0.220099    0.497106
   10.H        -0.825172    0.223302    1.749002
   11.O        -0.773979    0.231701    0.774858
   12.H        -2.174871    0.566495    0.006538
   13.H         5.336656    0.874479   -0.969748
   14.O         4.869918    0.621651   -0.151213
   15.H         5.547538    0.385337    0.509172
   16.Hg        1.056215   -0.272265    0.237532
 <Jan01-2013> <09:17:18>  >>>> CORORT
 <Jan01-2013> <09:17:19>  >>>> FITINT
 <Jan01-2013> <09:17:21>  >>>> CLSMAT
 <Jan01-2013> <09:17:24>  >>>> ORTHON
 <Jan01-2013> <09:17:25>  >>>> GENPT
 <Jan01-2013> <09:17:25>  Acc.Num.Int.=   6.000
 <Jan01-2013> <09:17:25>  Reusing previous cell geometry for gradient smoothing.
 <Jan01-2013> <09:17:25>  Block Length= 128
 <Jan01-2013> <09:17:25>  >>>> PTBAS
 <Jan01-2013> <09:18:49>  >>>> CYCLE
 <Jan01-2013> <09:18:52>    1
 <Jan01-2013> <09:19:00>    2  ErrMat   0.00005622  MaxEl  0.00000734
 <Jan01-2013> <09:19:07>    3  ErrMat   0.00002682  MaxEl -0.00000344
 <Jan01-2013> <09:19:14>    4  ErrMat   0.00002196  MaxEl -0.00000425
 <Jan01-2013> <09:19:23>    5  ErrMat   0.00000812  MaxEl -0.00000124
 <Jan01-2013> <09:19:30>    6  ErrMat   0.00000329  MaxEl  0.00000066
 <Jan01-2013> <09:19:34>  SCF converged
 <Jan01-2013> <09:19:38>    7  ErrMat   0.00000107  MaxEl -0.00000013
 <Jan01-2013> <09:19:45>  >>>> TOTEN
 <Jan01-2013> <09:19:55>  >>>> POPAN
 <Jan01-2013> <09:19:55>  >>>> DEBYE
 <Jan01-2013> <09:19:55>  >>>> AMETS
 <Jan01-2013> <09:19:55>  >>>> ENGRAD
  Coordinates in Frequency Displacement 95
    Atom         X           Y           Z   (Angstrom)
    1.H        -3.135368    1.771715   -0.522905
    2.O        -3.005762    0.805790   -0.522176
    3.H        -3.959070    0.222393   -0.299165
    4.H         3.090970   -1.736306   -0.441757
    5.O         2.901825   -0.779726   -0.453180
    6.H         3.840012   -0.162818   -0.287552
    7.H        -5.435626   -0.889240   -0.901294
    8.O        -5.001336   -0.526720   -0.107009
    9.H        -5.701808   -0.220099    0.497106
   10.H        -0.825172    0.223302    1.749002
   11.O        -0.773979    0.231701    0.774858
   12.H        -2.174871    0.566495    0.006538
   13.H         5.336656    0.874479   -0.969748
   14.O         4.869918    0.621651   -0.151213
   15.H         5.547538    0.385337    0.509172
   16.Hg        1.056215   -0.282265    0.227532
 <Jan01-2013> <09:21:26>  >>>> CORORT
 <Jan01-2013> <09:21:26>  >>>> FITINT
 <Jan01-2013> <09:21:28>  >>>> CLSMAT
 <Jan01-2013> <09:21:31>  >>>> ORTHON
 <Jan01-2013> <09:21:31>  >>>> GENPT
 <Jan01-2013> <09:21:31>  Acc.Num.Int.=   6.000
 <Jan01-2013> <09:21:31>  Reusing previous cell geometry for gradient smoothing.
 <Jan01-2013> <09:21:31>  Block Length= 128
 <Jan01-2013> <09:21:32>  >>>> PTBAS
 <Jan01-2013> <09:22:56>  >>>> CYCLE
 <Jan01-2013> <09:23:00>    1
 <Jan01-2013> <09:23:12>    2  ErrMat   0.00610254  MaxEl -0.00116695
 <Jan01-2013> <09:23:25>    3  ErrMat   0.00290606  MaxEl -0.00056313
 <Jan01-2013> <09:23:37>    4  ErrMat   0.00268983  MaxEl  0.00043179
 <Jan01-2013> <09:23:49>    5  ErrMat   0.00043165  MaxEl  0.00008831
 <Jan01-2013> <09:24:01>    6  ErrMat   0.00024588  MaxEl  0.00004395
 <Jan01-2013> <09:24:09>    7  ErrMat   0.00002621  MaxEl  0.00000234
 <Jan01-2013> <09:24:21>    8  ErrMat   0.00001540  MaxEl -0.00000164
 <Jan01-2013> <09:24:35>    9  ErrMat   0.00000225  MaxEl  0.00000030
 <Jan01-2013> <09:24:42>  SCF converged
 <Jan01-2013> <09:24:47>   10  ErrMat   0.00000097  MaxEl -0.00000013
 <Jan01-2013> <09:24:56>  >>>> TOTEN
 <Jan01-2013> <09:25:08>  >>>> POPAN
 <Jan01-2013> <09:25:08>  >>>> DEBYE
 <Jan01-2013> <09:25:08>  >>>> AMETS
 <Jan01-2013> <09:25:08>  >>>> ENGRAD
  Coordinates in Frequency Displacement 96
    Atom         X           Y           Z   (Angstrom)
    1.H        -3.135368    1.771715   -0.522905
    2.O        -3.005762    0.805790   -0.522176
    3.H        -3.959070    0.222393   -0.299165
    4.H         3.090970   -1.736306   -0.441757
    5.O         2.901825   -0.779726   -0.453180
    6.H         3.840012   -0.162818   -0.287552
    7.H        -5.435626   -0.889240   -0.901294
    8.O        -5.001336   -0.526720   -0.107009
    9.H        -5.701808   -0.220099    0.497106
   10.H        -0.825172    0.223302    1.749002
   11.O        -0.773979    0.231701    0.774858
   12.H        -2.174871    0.566495    0.006538
   13.H         5.336656    0.874479   -0.969748
   14.O         4.869918    0.621651   -0.151213
   15.H         5.547538    0.385337    0.509172
   16.Hg        1.056215   -0.282265    0.247532
 <Jan01-2013> <09:27:45>  >>>> CORORT
 <Jan01-2013> <09:27:45>  >>>> FITINT
 <Jan01-2013> <09:27:48>  >>>> CLSMAT
 <Jan01-2013> <09:27:51>  >>>> ORTHON
 <Jan01-2013> <09:27:51>  >>>> GENPT
 <Jan01-2013> <09:27:51>  Acc.Num.Int.=   6.000
 <Jan01-2013> <09:27:51>  Reusing previous cell geometry for gradient smoothing.
 <Jan01-2013> <09:27:52>  Block Length= 128
 <Jan01-2013> <09:27:52>  >>>> PTBAS
 <Jan01-2013> <09:29:22>  >>>> CYCLE
 <Jan01-2013> <09:29:25>    1
 <Jan01-2013> <09:29:37>    2  ErrMat   0.00007819  MaxEl -0.00001369
 <Jan01-2013> <09:29:51>    3  ErrMat   0.00003811  MaxEl -0.00000668
 <Jan01-2013> <09:30:02>    4  ErrMat   0.00004396  MaxEl  0.00000787
 <Jan01-2013> <09:30:14>    5  ErrMat   0.00000721  MaxEl -0.00000114
 <Jan01-2013> <09:30:26>    6  ErrMat   0.00000201  MaxEl -0.00000021
 <Jan01-2013> <09:30:33>  SCF converged
 <Jan01-2013> <09:30:38>    7  ErrMat   0.00000055  MaxEl -0.00000009
 <Jan01-2013> <09:30:49>  >>>> TOTEN
 <Jan01-2013> <09:31:02>  >>>> POPAN
 <Jan01-2013> <09:31:02>  >>>> DEBYE
 <Jan01-2013> <09:31:02>  >>>> AMETS
 <Jan01-2013> <09:31:02>  >>>> ENGRAD
 <Jan01-2013> <09:33:44>  Force Constants computed
 <Jan01-2013> <09:33:44>  NORMAL TERMINATION
 <Jan01-2013> <09:33:45>  END
 <Jan01-2013> <09:33:45>  Total Bonding Energy:         -42.71693294 a.u.
