
 *******************************************************************************
 *                                                                             *
 *  -------------------------------------                                      *
 *   Amsterdam Density Functional  (ADF)         2013.01   April 2, 2013       *
 *  -------------------------------------                                      *
 *                                               Build 201304112106            *
 *                                                                             *
 *                                                                             *
 *                            =====================                            *
 *                            |                   |                            *
 *                            |     D I R A C     |                            *
 *                            |                   |                            *
 *                            =====================                            *
 *                                                                             *
 *                                                                             *
 *   Online information and documentation:  http://www.scm.com                 *
 *   E-mail:  support@scm.com   info@scm.com                                   *
 *                                                                             *
 *   Scientific publications using ADF results must be properly referenced     *
 *   See the User Manuals (or the web site) for recommended citations          *
 *   The terms and conditions of the End User License Agreement apply to       *
 *   the use of ADF, http://www.scm.com/Sales/LicAgreement.html                *
 *                                                                             *
 ****************************  x86_64_linux_intel  *****************************
 
 Licensed to: Prof. Cacier Hadad / University of Antioquia / Medellin / COLOMBIA
 SCM User ID: u15319
  
 DIRAC 2013.01  RunTime: Jan01-2013 00:00:00  Nodes: 1  Procs: 1

 Temporary files are created in /tmp/kid_0.UHdhy3

1
 HYDROGEN ATOM RELATIVISTIC, Point Nuc, A and c from libtc   
 N J RN H ZN XION ANUC CLIGHT
 5000    1100.00000000197.36710137  1.00000000  0.00000000    1.007825  0.1370360E+03
  PH   PHI     EPS        DEL        DELRVR
  0.30  0.30     2500.00  0.00001000  0.00001000
 IDIRC  NC1  NDEBU NPRIN  IPUN IRCOR IWCOR
   1   300     0     0     0     0     0
   XALPHA      XLATTER      RNUC
  0.70000000  0.00000000  0.00000000 Point Charge
   XN   XL   XJ      XE          XZ      XDELL
  1.0  0.0  0.5      -1.000       1.000     0.00000
 ICORP=  0  NPCL=  0  DEMP=0.00  PEPS=0.000000
 R(1)=  0.1000000E-08 D=  0.1005080E+01 RNUC=  0.0000000E+00
 converged at cycle   32  DENSITY AVERAGING    0.2400
  MAXIMUM ERROR IN R.V(R) IS   0.79874357E-05
 Q,EY,EV,EZ,ESUM,ETOT,RHO  0.100000E+01 -0.266614E+00 -0.619969E+00 -0.910779E+00 -0.203940E+00 -0.415998E+00  0.337036E-17


 DIRAC CALCULATION
1                    HYDROGEN ATOM RELATIVISTIC, Point Nuc, A and c from libtc


 EXCHANGE COEFFICIENT=  0.7000000           TAIL CORRECTION=  0.           NUCLEAR RADIUS=  0.000E+00
0                       ORBITAL    N    L    J     ELECTRONS     EIGENVALUE                DELTA OF EIGENV.

                          1S1/2  1.0  0.0  0.5     1.000       -0.2039397E+00                 0.2720093E-06


                                        NUCLEAR CHARGE=    1.000000
                            INTEGRAL OF CHARGE DENSITY=    1.000000
                           SUM OF THE ORBITAL ENERGIES=     -0.2039
                                          TOTAL ENERGY=     -0.4160
                                        KINETIC ENERGY=      0.4160
                             NUCLEAR ATTRACTION ENERGY=     -0.9108
                             ELECTRON REPULSION ENERGY=      0.2787
                                       EXCHANGE ENERGY=     -0.2000

 *******************************************************************************

                             D I R A C   E X I T
 NORMAL TERMINATION



 =================
 Timing Statistics
 =================
  
 Total Used :                     CPU=        0.09      System=        0.02     Elapsed=        0.52

 Calls  Section                     ( Mean, Percentage )
 ---------------------------------------------------------------------------------------------------
     2  ><      ................      0.00    0.00             0.00    0.05             0.00    0.00
     1  EXIT PROCEDURE .........      0.09  100.00             0.02   99.95             0.52  100.00


 Currently Open Files (EXIT00)
 ====================

 Unit    Access Format  Status   Type       Ident (file)
 -------------------------------------------------------
   3      SEQ    FORM   TRANSP  NORMAL      LOGFILE
                                          ( logfile )


 Buffered I/O statistics
 =======================
 Memory available:                     67108864
 Number of records fitting in memory:     16131
 Input : 100.0% of                            0  *4k bytes
 Output: 100.0% of                            0  *4k bytes
 Records from serial files evicted:           0
                    others evicted:           0
 Hash table lookups:          0 with          0 conflicts (100.00%)
(INPUT FILE)
Create H   file=/home/andyzapa/adf2013.01/atomicdata/ZORA/QZ4P/H
XC
GGA PBE
End
relativistic ZORA
Corepotentials t12.rel
End Input

 *******************************************************************************
 *                                                                             *
 *  -------------------------------------                                      *
 *   Amsterdam Density Functional  (ADF)         2013.01   April 2, 2013       *
 *  -------------------------------------                                      *
 *                                               Build 201304112215            *
 *                                                                             *
 *                                                                             *
 *                              =================                              *
 *                              |               |                              *
 *                              |     A D F     |                              *
 *                              |               |                              *
 *                              =================                              *
 *                                                                             *
 *                                                                             *
 *   Online information and documentation:  http://www.scm.com                 *
 *   E-mail:  support@scm.com   info@scm.com                                   *
 *                                                                             *
 *   Scientific publications using ADF results must be properly referenced     *
 *   See the User Manuals (or the web site) for recommended citations          *
 *   The terms and conditions of the End User License Agreement apply to       *
 *   the use of ADF, http://www.scm.com/Sales/LicAgreement.html                *
 *                                                                             *
 ********************  x86_64_linux_intel / platform_mpi  **********************
 
 Licensed to: Prof. Cacier Hadad / University of Antioquia / Medellin / COLOMBIA
 SCM User ID: u15319
  
 ADF 2013.01  RunTime: Jan01-2013 00:00:01  Nodes: 1  Procs: 1

 Temporary files are created in /tmp/kid_0.Zf95dK

 Hydrogen (QZ, all electron, 5S 2P 2D)



 ===========================
 A T T A C H E D   F I L E S
 ===========================
  
 CREATE - Data File:    /home/andyzapa/adf2013.01/atomicdata/ZORA/QZ4P/H
                        Hydrogen (QZ, all electron, 5S 2P 2D)
 Core Potentials:
         file : t12.rel



 ===============================
 M O D E L   P A R A M E T E R S
 ===============================
  
 DENSITY FUNCTIONAL POTENTIAL (scf)
    LDA:                               PW92                                    == Not Default ==
    Gradient Corrections:              PBEc PBEx                               == Not Default ==

 SPIN  (restricted / unrestr.)
    Molecule:                          Restricted                               

 OTHER ASPECTS
    Relativistic Corrections:          scalar (ZORA,SAPA)                      == Not Default ==

    Nuclear Charge Density Model:      Point Charge Nuclei                                                                                                                                                                                     
    Core Treatment:                    Frozen Orbital(s)                        

    Hyperfine or Zeeman Interaction:   ---                                      



 =====================================
 S Y M M E T R Y ,   E L E C T R O N S
 =====================================
  
 Symmetry: ATOM

 Irreducible Representations, including subspecies
 -------------------------------------------------
 S
 P:x  P:y  P:z
 D:z2  D:x2-y2  D:xy  D:xz  D:yz
 F:z3  F:z  F:xyz  F:z2x  F:z2y  F:x  F:y


 Configuration of Valence Electrons
 ==================================

          Occupation Numbers
          -------------------------------------------------
 S        1
 P        0
 D        0
 F        0
          -------------------------------------------------

 Total:   1

 Net Charge: 0 (Nuclei minus Electrons)

 Preset values for MO occupations will be applied through SCF cycle no. 1000000
 Thereafter, the program will assign electrons to MOs that are spatially
 similar to the occupied MOs in a "reference" cycle ("KeepOrbitals").
 The reference cycle is always the PREVIOUS cycle: it will evolve with
 the SCF procedure.



 ================================
 (Slater-type)  F U N C T I O N S  ***  (Basis and Fit)  ***
 ================================
  

 Atom Type    1  (H)
 ==============

 Valence Basis Sets:   9
 -----------------------
   1 S    3.300000
   1 S    2.000000
   1 S    1.400000
   1 S    1.000000
   1 S    0.710000
   2 P    2.000000
   2 P    1.000000
   3 D    2.500000
   3 D    1.500000

 Charge Fitting Sets (for the computation of the Coulomb Potential):  22
 -----------------------------------------------------------------------
   1 S    6.600000
   1 S    4.620000
   1 S    3.230000
   1 S    2.260000
   1 S    1.580000
   1 S    1.100000
   1 S    0.770000
   2 S    1.000000
   2 P    5.300000
   2 P    3.870000
   2 P    2.820000
   2 P    2.060000
   2 P    1.500000
   3 D    5.800000
   3 D    4.070000
   3 D    2.850000
   3 D    2.000000
   4 F    4.500000
   4 F    3.350000
   4 F    2.500000
   5 G    5.000000
   5 G    3.000000


 BAS: List of all Elementary Cartesian Basis Functions
 =====================================================

 The numbering in the list below (to the right of the function characteristics) is referred
 to in print-outs of MO eigenvectors and Mulliken populations in the BAS representation
 (as contrasted to the SFO representation).

 Notes:
 1. The functions are characterized by a polynomial prefactor (powers of x,y,z and r) and
    an exponential decay factor alpha.
 2. Since the basis sets are specific for an atom TYPE, the individual functions occur on
    all atoms of that type.
 3. The word 'Core' in the left margin signals that it is a Core Function (CF) : not a
    degree of freedom in the valence set, but only used to ensure orthogonalization of
    the other valence basis functions on the frozen Core Orbitals.


 (power of) X  Y  Z  R     Alpha  on Atom
            ==========     =====     ==========

 H                                    1
                                  ---------------------------------------------------------------------------
            0  0  0  0     3.300      1
            0  0  0  0     2.000      2
            0  0  0  0     1.400      3
            0  0  0  0     1.000      4
            0  0  0  0     0.710      5
            1  0  0  0     2.000      6
            0  1  0  0     2.000      7
            0  0  1  0     2.000      8
            1  0  0  0     1.000      9
            0  1  0  0     1.000     10
            0  0  1  0     1.000     11
            2  0  0  0     2.500     12
            1  1  0  0     2.500     13
            1  0  1  0     2.500     14
            0  2  0  0     2.500     15
            0  1  1  0     2.500     16
            0  0  2  0     2.500     17
            2  0  0  0     1.500     18
            1  1  0  0     1.500     19
            1  0  1  0     1.500     20
            0  2  0  0     1.500     21
            0  1  1  0     1.500     22
            0  0  2  0     1.500     23

 Total number of charge fitting functions (nprimf)       107
 Total number of Cartesian basis functions (naos)         23
 Total number of Cartesian core functions  (ncos)          0



 BAS: List of all Elementary Cartesian Basis Functions
 =====================================================

 The numbering in the list below (to the right of the function characteristics) is referred
 to in print-outs of MO eigenvectors and Mulliken populations in the BAS representation
 (as contrasted to the SFO representation).

 Notes:
 1. The functions are characterized by a polynomial prefactor (powers of x,y,z and r) and
    an exponential decay factor alpha.
 2. Since the basis sets are specific for an atom TYPE, the individual functions occur on
    all atoms of that type.
 3. The word 'Core' in the left margin signals that it is a Core Function (CF) : not a
    degree of freedom in the valence set, but only used to ensure orthogonalization of
    the other valence basis functions on the frozen Core Orbitals.


 (power of) X  Y  Z  R     Alpha  on Atom
            ==========     =====     ==========

 H                                    1
                                  ---------------------------------------------------------------------------
            0  0  0  0     3.300      1
            0  0  0  0     2.000      2
            0  0  0  0     1.400      3
            0  0  0  0     1.000      4
            0  0  0  0     0.710      5
            1  0  0  0     2.000      6
            0  1  0  0     2.000      7
            0  0  1  0     2.000      8
            1  0  0  0     1.000      9
            0  1  0  0     1.000     10
            0  0  1  0     1.000     11
            2  0  0  0     2.500     12
            1  1  0  0     2.500     13
            1  0  1  0     2.500     14
            0  2  0  0     2.500     15
            0  1  1  0     2.500     16
            0  0  2  0     2.500     17
            2  0  0  0     1.500     18
            1  1  0  0     1.500     19
            1  0  1  0     1.500     20
            0  2  0  0     1.500     21
            0  1  1  0     1.500     22
            0  0  2  0     1.500     23
1
 ***************************************************************************************************



                                              ***********************
                                              *  T E C H N I C A L  *
                                              ***********************
  



 =============================================================
 P A R A L L E L I Z A T I O N  and  V E C T O R I Z A T I O N
 =============================================================
  
 Nr of parallel processes:                                1
 Maximum vector length in NumInt loops:                 128



 ===============
 I O  vs.  C P U  ***  (store numerical data on disk or recalculate)  ***
 ===============
  
 Basis functions:   recalculate when needed
 Fit functions:     recalculate when needed

 IO buffersize (Mb):                                     64.000000



 =====================
 S C F   U P D A T E S
 =====================
  
 Max. nr. of cycles:                               100
 Convergence criterion:                              0.0000000100
   secondary criterion:                              0.0000000100

 Mix parameter (when DIIS does not apply):           0.2000000000
 Special mix parameter for the first cycle:          1.0000000000


 DIIS (Direct Inversion in Iteration Space)
    Replace damping when SCF Error is below:         0.5000000000
    Apply anyway after SCF cycle:
                                                     5
    (Max.) nr. of expansion vectors:                10

    Upperbound on expansion coefficients:            5.0000000000
    (when exceeded, IterationSpace is re-built)
    2nd Upperbound on coefficients:                 25.0000000000
    (when exceeded, simple damping will be used)
 Automatic ElectronSmearing (in case of problematic SCF convergence) disabled



 =================
 P R E C I S I O N  ***  (General: NumInt, NeglectFunctionTails, ...)  ***
 =================
  

 NumInt:           Target precision:                10.0000000000
 -------           Initial precision:               10.0000000000
                   Min. precision (optimization):   10.0000000000

 Neglect Functions:          Basis functions:        0.1000000000E-11
 ------------------          Fit functions:          0.1000000000E-11



 ===========================
 L I N E A R   S C A L I N G
 ===========================
  

 Cut-off radii density fit:                        0.1000000000E-13
 Overlap cut-off criterion AO matrix elements:     0.1000000000E-11
 Cut-offs for Coulomb potential and fitted density:0.1000000000E-13
 Cut-off criterion for Coulomb multipole terms:    0.1000000000E-13
 Progressive Convergence parameter:                 0.000000000    
1
 ***************************************************************************************************



                                            ***************************
                                            *  C O M P U T A T I O N  *
                                            ***************************
  

 Number of elements of the density matrix on this node (used, total):       276       276



 ====================================================
 Numerical Integration : Voronoi Polyhedra (Te Velde)
 ====================================================
  
 General Accuracy Parameter :                         10.00

 Symmetry used in the points section:  ATOM  


 Summary of the Symmetry Unique Points:
 --------------------------------------
    Nr. of used Symmetry Operators                     1

    Points in the Atomic Spheres                      44
    Points in the Atomic Polyhedra                     0
    Points in the Outer Region                         0
    ----------------------------------------------------
    Total                                             44

    Sum of Weights                                 33854.777883

 Total nr. of points:         44
 Nr. of blocks:                1
 Block length:                44
 Nr. of dummy points:          0


 Test of Precision of the Numerical Integration Grid
 ===================================================

 Integral of the Total Core Density:                   0.00000000000000



 =====
 S C F
 =====
  

 CYCLE    1
 orbitals (Q,E):
 ---------------
 S :1...5            ( 1.00    -0.5000)  ( 0.00    -0.1102)  ( 0.00     0.2912)  ( 0.00     2.1458)
                     ( 0.00    15.1140)
 P :1...2            ( 0.00    -0.0467)  ( 0.00     1.6698)
 D :1...2            ( 0.00     0.4090)  ( 0.00     3.3827)

 CYCLE    2
 d-Pmat  mean:  0.40E-01
 imax=      4: -0.73E+00
 orbitals (Q,E):
 ---------------
 S :1...2            ( 1.00    -0.2213)  ( 0.00     0.0617)
 P :1...1            ( 0.00     0.1820)
 D :1...1            ( 0.00     0.6395)

 CYCLE    3
 d-Pmat  mean:  0.48E-02
 imax=      4:  0.66E-01
 orbitals (Q,E):
 ---------------
 S :1...2            ( 1.00    -0.2392)  ( 0.00     0.0523)
 P :1...1            ( 0.00     0.1713)
 D :1...1            ( 0.00     0.6290)

 CYCLE    4
 d-Pmat  mean:  0.47E-03
 imax=      4: -0.74E-02
 orbitals (Q,E):
 ---------------
 S :1...2            ( 1.00    -0.2386)  ( 0.00     0.0522)
 P :1...1            ( 0.00     0.1716)
 D :1...1            ( 0.00     0.6293)

 CYCLE    5
 d-Pmat  mean:  0.13E-04
 imax=      4:  0.20E-03
 orbitals (Q,E):
 ---------------
 S :1...2            ( 1.00    -0.2386)  ( 0.00     0.0522)
 P :1...1            ( 0.00     0.1716)
 D :1...1            ( 0.00     0.6293)

 CYCLE    6
 d-Pmat  mean:  0.14E-06
 imax=      4:  0.26E-05
 orbitals (Q,E):
 ---------------
 S :1...2            ( 1.00    -0.2386)  ( 0.00     0.0522)
 P :1...1            ( 0.00     0.1716)
 D :1...1            ( 0.00     0.6293)

 CYCLE    7
 d-Pmat  mean:  0.24E-08
 imax=      4:  0.39E-07
 orbitals (Q,E):
 ---------------
 S :1...2            ( 1.00    -0.2386)  ( 0.00     0.0522)
 P :1...1            ( 0.00     0.1716)
 D :1...1            ( 0.00     0.6293)

 SCF CONVERGED

 CYCLE    8
1
 ***************************************************************************************************



                                                *******************
                                                *  R E S U L T S  *
                                                *******************
  
 *** Setting up for NEW gradients in focky
 *** Using FIT density in focky

 Scaled ZORA Orbital Energies, per Irrep and Spin:
 =================================================
                        Occup              E (au)              E (eV)       Diff (eV) with prev. cycle
                        -----      --------------------        ------       --------------------------
 S
               1        1.000     -0.23860414448779E+00        -6.493              -2.14E-10
               2        0.000      0.52240780773202E-01         1.422
               3        0.000      0.50128711414796E+00        13.641
               4        0.000      0.23892611828176E+01        65.015
               5        0.000      0.15295018626305E+02       416.199
 P
               1        0.000      0.17156247999750E+00         4.668
               2        0.000      0.19364620405874E+01        52.694
 D
               1        0.000      0.62928666110105E+00        17.124
               2        0.000      0.36544214463356E+01        99.442


 Partially Occupied:
               1 S                -0.23860414448779E+00
  
 LUMO :        2 S                 0.52240780773202E-01
  


 Orbital Energies, all Irreps
 ========================================

 Irrep        no.  (spin)   Occup              E (au)                E (eV)
 ---------------------------------------------------------------------------
 S             1             1.00       -0.23860414448779E+00        -6.4927
 S             2             0.00        0.52240780773202E-01         1.4215
 P             1             0.00        0.17156247999750E+00         4.6685
 S             3             0.00        0.50128711414796E+00        13.6407
 D             1             0.00        0.62928666110105E+00        17.1238
 P             2             0.00        0.19364620405874E+01        52.6938
 S             4             0.00        0.23892611828176E+01        65.0151
 D             2             0.00        0.36544214463356E+01        99.4419
 S             5             0.00        0.15295018626305E+02       416.1986


 All Electron Calculation, thus no Orbital Energies of the Core Orbitals are calculated



 =======================================
 M U L L I K E N   P O P U L A T I O N S
 =======================================
  
 The survey below gives for each atom:
 a) the total charge (Z minus electrons)
 b) the net spin polarization (nr of electrons spin-A minus spin-B)
 c) for each spin the atomic electron valence density (integrated) per L-value.

 Atom              Charge    Spin density          S         P         D         F
 ----              ------    ------------       ------    ------    ------    ------
 1 H               0.0000                       1.0000    0.0000    0.0000    0.0000

 Populations of individual BAS functions
 ----------------------------------------
 1 H           -0.0037  0.0405  0.0399  0.5670  0.3563  0.0000  0.0000  0.0000  0.0000  0.0000
                0.0000  0.0000  0.0000  0.0000  0.0000  0.0000  0.0000  0.0000  0.0000  0.0000
                0.0000  0.0000  0.0000

 Gross Charges per Atom (Z minus electrons)
 ==========================================
             0.0000
 Net Total:  0.00000000


 Atom-Atom Population Matrix (off-diagonal elements not doubled)
 ===============================================================

     1 :     1.0000



 =============
 Dipole Moment  ***  (Debye)  ***
 =============
  
 Vector   :         0.00000000      0.00000000      0.00000000
 Magnitude:         0.00000000

 This molecular dipole moment is calculated with analytic integration



 =========================================
 Quadrupole Moment (Buckingham convention)  ***  (a.u.)  ***
 =========================================
  
      quad-xx        quad-xy        quad-xz        quad-yy        quad-yz        quad-zz
      0.00000000     0.00000000     0.00000000     0.00000000     0.00000000     0.00000000

 This molecular quadrupole moment is calculated with analytic integration



 ===============================================================================
 Electrostatic potential at the Nuclei due to valence electrons and other nuclei
 ===============================================================================
  
         Atom                  Potential
         ----                  ---------
     1)   H                   0.94463948
 
 
 ========================
 No memory problems found
 ========================
 
 Maximum number of active allocate calls:         378
 
 *******************************************************************************

                             A D F   E X I T
 NORMAL TERMINATION



 =================
 Timing Statistics
 =================
  
 Total Used :                     CPU=        0.16      System=        0.07     Elapsed=        1.20

 Calls  Section                     ( Mean, Percentage )
 ---------------------------------------------------------------------------------------------------
     3  ><      ................      0.00    0.26             0.00    1.58             0.04    9.04
     1  INIT    ................      0.01    4.71             0.01    8.98             0.29   24.12
     1  GEOMET  ................      0.00    2.03             0.03   47.03             0.13   10.57
     1  INPUTA  ................      0.00    1.49             0.00    0.00             0.00    0.28
     1  MAINSY  ................      0.00    2.01             0.01    7.60             0.10    8.62
     1  SYMFIT  ................      0.00    0.00             0.00    0.49             0.00    0.03
     1  CORORT  ................      0.00    0.00             0.00    0.66             0.01    0.59
     1  SYMORB  ................      0.00    0.07             0.00    1.08             0.00    0.08
     1  FITINT  ................      0.01    3.31             0.00    0.23             0.02    1.61
     1  CLSMAT  ................      0.00    0.32             0.00    0.00             0.01    0.46
     1  ORTHON  ................      0.00    1.23             0.00    0.00             0.01    0.66
     1  GENPT   ................      0.01    4.06             0.00    2.97             0.04    3.60
     1  PTBAS   ................      0.00    0.11             0.00    3.29             0.01    0.71
     8  FOCKY   ................      0.01   41.99             0.00   19.26             0.02   15.20
     8  FOCKTR  ................      0.00    1.44             0.00    0.46             0.00    0.22
     8  FOCKNM  ................      0.00    0.18             0.00    0.04             0.00    0.03
     8  SDIIS   ................      0.00    2.58             0.00    1.13             0.02   12.32
     8  EMERGE  ................      0.00   13.28             0.00    4.50             0.01    5.42
     1  COREPS  ................      0.00    1.86             0.00    0.00             0.01    0.57
     1  POPAN   ................      0.00    1.49             0.00    0.00             0.02    1.40
     1  DEBYE   ................      0.00    0.46             0.00    0.00             0.01    0.55
     1  QMPOT   ................      0.00    1.62             0.00    0.71             0.00    0.26
     1  EXIT PROCEDURE .........      0.02   15.49             0.00    0.00             0.04    3.66


 Currently Open Files (EXIT00)
 ====================

 Unit    Access Format  Status   Type       Ident (file)
 -------------------------------------------------------
   3      SEQ    FORM   TRANSP  NORMAL      LOGFILE
                                          ( logfile )


 Buffered I/O statistics
 =======================
 Memory available:                     67108864
 Number of records fitting in memory:     16131
 Input :   1.3% of                         3604  *4k bytes
 Output:  10.6% of                         1855  *4k bytes
 Records from serial files evicted:           0
                    others evicted:           0
 Hash table lookups:      14887 with          0 conflicts (  0.00%)

 ***************************************************************************************************
 (LOGFILE)
 <Jan01-2013> <00:00:00>  DIRAC 2013.01  RunTime: Jan01-2013 00:00:00  Nodes: 1  Procs: 1
 <Jan01-2013> <00:00:00>  NORMAL TERMINATION
 <Jan01-2013> <00:00:00>  END
 <Jan01-2013> <00:00:01>  ADF 2013.01  RunTime: Jan01-2013 00:00:01  Nodes: 1  Procs: 1
 <Jan01-2013> <00:00:01>  Hydrogen (QZ, all electron, 5S 2P 2D)
 <Jan01-2013> <00:00:01>  RunType   : CREATE
 <Jan01-2013> <00:00:01>  Net Charge: 0 (Nuclei minus Electrons)
 <Jan01-2013> <00:00:01>  Symmetry  : ATOM
  Coordinates
    Atom         X           Y           Z   (Angstrom)
    1.H         0.000000    0.000000    0.000000
 <Jan01-2013> <00:00:01>  >>>> CORORT
 <Jan01-2013> <00:00:01>  >>>> FITINT
 <Jan01-2013> <00:00:01>  >>>> CLSMAT
 <Jan01-2013> <00:00:01>  >>>> ORTHON
 <Jan01-2013> <00:00:01>  >>>> GENPT
 <Jan01-2013> <00:00:01>  Acc.Num.Int.=  10.000
 <Jan01-2013> <00:00:01>  Block Length=  44
 <Jan01-2013> <00:00:01>  >>>> PTBAS
 <Jan01-2013> <00:00:01>  >>>> CYCLE
 <Jan01-2013> <00:00:01>    1
 <Jan01-2013> <00:00:01>    2  ErrMat   0.03803841  MaxEl  0.03078708
 <Jan01-2013> <00:00:01>    3  ErrMat   0.00916622  MaxEl -0.00901560
 <Jan01-2013> <00:00:01>    4  ErrMat   0.00035667  MaxEl  0.00031421
 <Jan01-2013> <00:00:02>    5  ErrMat   0.00000962  MaxEl -0.00000892
 <Jan01-2013> <00:00:02>    6  ErrMat   0.00000013  MaxEl  0.00000008
 <Jan01-2013> <00:00:02>    7  ErrMat   0.00000000  MaxEl  0.00000000
 <Jan01-2013> <00:00:02>  SCF converged
 <Jan01-2013> <00:00:02>    8  ErrMat   0.00000000  MaxEl  0.00000000
 <Jan01-2013> <00:00:02>   Solutions with partially occupied orbitals may not be
 <Jan01-2013> <00:00:02>   lowest in energy. You might consider lowering the
 <Jan01-2013> <00:00:02>   symmetry in the input and explicitly specifying integer
 <Jan01-2013> <00:00:02>   occupations. In that case always check that you obtain
 <Jan01-2013> <00:00:02>   an aufbau solution.
 <Jan01-2013> <00:00:02>  >>>> POPAN
 <Jan01-2013> <00:00:02>  >>>> DEBYE
 <Jan01-2013> <00:00:02>  NORMAL TERMINATION
 <Jan01-2013> <00:00:02>  END

 *******************************************************************************
 *                                                                             *
 *  -------------------------------------                                      *
 *   Amsterdam Density Functional  (ADF)         2013.01   April 2, 2013       *
 *  -------------------------------------                                      *
 *                                               Build 201304112106            *
 *                                                                             *
 *                                                                             *
 *                            =====================                            *
 *                            |                   |                            *
 *                            |     D I R A C     |                            *
 *                            |                   |                            *
 *                            =====================                            *
 *                                                                             *
 *                                                                             *
 *   Online information and documentation:  http://www.scm.com                 *
 *   E-mail:  support@scm.com   info@scm.com                                   *
 *                                                                             *
 *   Scientific publications using ADF results must be properly referenced     *
 *   See the User Manuals (or the web site) for recommended citations          *
 *   The terms and conditions of the End User License Agreement apply to       *
 *   the use of ADF, http://www.scm.com/Sales/LicAgreement.html                *
 *                                                                             *
 ****************************  x86_64_linux_intel  *****************************
 
 Licensed to: Prof. Cacier Hadad / University of Antioquia / Medellin / COLOMBIA
 SCM User ID: u15319
  
 DIRAC 2013.01  RunTime: Jan01-2013 00:00:02  Nodes: 1  Procs: 1

 Temporary files are created in /tmp/kid_0.YaRTAa

1
 OXYGEN ATOM all electron RELATIVISTIC, Point Nuc, A and c fr
 N J RN H ZN XION ANUC CLIGHT
 5000    4100.00000000197.36710137  8.00000000  0.00000000   15.994914  0.1370360E+03
  PH   PHI     EPS        DEL        DELRVR
  0.30  0.30     2500.00  0.00001000  0.00001000
 IDIRC  NC1  NDEBU NPRIN  IPUN IRCOR IWCOR
   1   300     0     0     0     0     0
   XALPHA      XLATTER      RNUC
  0.70000000  0.00000000  0.00000000 Point Charge
   XN   XL   XJ      XE          XZ      XDELL
  1.0  0.0  0.5      -5.000       2.000     0.00000
  2.0  0.0  0.5      -1.000       2.000     0.00000
  2.0  1.0  0.5      -1.000       2.000     0.00000
  2.0  1.0  1.5      -1.000       2.000     0.00000
 ICORP=  0  NPCL=  0  DEMP=0.00  PEPS=0.000000
 R(1)=  0.1000000E-08 D=  0.1005080E+01 RNUC=  0.0000000E+00
 converged at cycle   28  DENSITY AVERAGING    0.2400
  MAXIMUM ERROR IN R.V(R) IS   0.81125670E-05
 Q,EY,EV,EZ,ESUM,ETOT,RHO  0.800000E+01 -0.101247E+02 -0.114961E+03 -0.177573E+03 -0.405053E+02 -0.743427E+02  0.414766E-14


 DIRAC CALCULATION
1                    OXYGEN ATOM all electron RELATIVISTIC, Point Nuc, A and c from libtc


 EXCHANGE COEFFICIENT=  0.7000000           TAIL CORRECTION=  0.           NUCLEAR RADIUS=  0.000E+00
0                       ORBITAL    N    L    J     ELECTRONS     EIGENVALUE                DELTA OF EIGENV.

                          1S1/2  1.0  0.0  0.5     2.000       -0.1880014E+02                 0.7264359E-06
                          2S1/2  2.0  0.0  0.5     2.000       -0.8412236E+00                 0.5932752E-05
                          2P1/2  2.0  1.0  0.5     2.000       -0.3063203E+00                 0.5998471E-05
                          2P3/2  2.0  1.0  1.5     2.000       -0.3049609E+00                 0.5986971E-05


                                        NUCLEAR CHARGE=    8.000000
                            INTEGRAL OF CHARGE DENSITY=    8.000000
                           SUM OF THE ORBITAL ENERGIES=    -40.5053
                                          TOTAL ENERGY=    -74.3427
                                        KINETIC ENERGY=     74.4552
                             NUCLEAR ATTRACTION ENERGY=   -177.5730
                             ELECTRON REPULSION ENERGY=     36.3686
                                       EXCHANGE ENERGY=     -7.5935

 *******************************************************************************

                             D I R A C   E X I T
 NORMAL TERMINATION



 =================
 Timing Statistics
 =================
  
 Total Used :                     CPU=        0.13      System=        0.03     Elapsed=        0.29

 Calls  Section                     ( Mean, Percentage )
 ---------------------------------------------------------------------------------------------------
     2  ><      ................      0.00    0.00             0.00    0.03             0.00    0.00
     1  EXIT PROCEDURE .........      0.13  100.00             0.03   99.97             0.29  100.00


 Currently Open Files (EXIT00)
 ====================

 Unit    Access Format  Status   Type       Ident (file)
 -------------------------------------------------------
   3      SEQ    FORM   TRANSP  NORMAL      LOGFILE
                                          ( logfile )


 Buffered I/O statistics
 =======================
 Memory available:                     67108864
 Number of records fitting in memory:     16131
 Input : 100.0% of                            0  *4k bytes
 Output: 100.0% of                            0  *4k bytes
 Records from serial files evicted:           0
                    others evicted:           0
 Hash table lookups:          0 with          0 conflicts (100.00%)
(INPUT FILE)
Create O   file=/home/andyzapa/adf2013.01/atomicdata/ZORA/QZ4P/O
XC
GGA PBE
End
relativistic ZORA
Corepotentials t12.rel
End Input

 *******************************************************************************
 *                                                                             *
 *  -------------------------------------                                      *
 *   Amsterdam Density Functional  (ADF)         2013.01   April 2, 2013       *
 *  -------------------------------------                                      *
 *                                               Build 201304112215            *
 *                                                                             *
 *                                                                             *
 *                              =================                              *
 *                              |               |                              *
 *                              |     A D F     |                              *
 *                              |               |                              *
 *                              =================                              *
 *                                                                             *
 *                                                                             *
 *   Online information and documentation:  http://www.scm.com                 *
 *   E-mail:  support@scm.com   info@scm.com                                   *
 *                                                                             *
 *   Scientific publications using ADF results must be properly referenced     *
 *   See the User Manuals (or the web site) for recommended citations          *
 *   The terms and conditions of the End User License Agreement apply to       *
 *   the use of ADF, http://www.scm.com/Sales/LicAgreement.html                *
 *                                                                             *
 ********************  x86_64_linux_intel / platform_mpi  **********************
 
 Licensed to: Prof. Cacier Hadad / University of Antioquia / Medellin / COLOMBIA
 SCM User ID: u15319
  
 ADF 2013.01  RunTime: Jan01-2013 00:00:03  Nodes: 1  Procs: 1

 Temporary files are created in /tmp/kid_0.2aNN7z

 Oxygen (QZ, all electron, 8S 4P 2D 2F)



 ===========================
 A T T A C H E D   F I L E S
 ===========================
  
 CREATE - Data File:    /home/andyzapa/adf2013.01/atomicdata/ZORA/QZ4P/O
                        Oxygen (QZ, all electron, 8S 4P 2D 2F)
 Core Potentials:
         file : t12.rel



 ===============================
 M O D E L   P A R A M E T E R S
 ===============================
  
 DENSITY FUNCTIONAL POTENTIAL (scf)
    LDA:                               PW92                                    == Not Default ==
    Gradient Corrections:              PBEc PBEx                               == Not Default ==

 SPIN  (restricted / unrestr.)
    Molecule:                          Restricted                               

 OTHER ASPECTS
    Relativistic Corrections:          scalar (ZORA,SAPA)                      == Not Default ==

    Nuclear Charge Density Model:      Point Charge Nuclei                                                                                                                                                                                     
    Core Treatment:                    Frozen Orbital(s)                        

    Hyperfine or Zeeman Interaction:   ---                                      



 =====================================
 S Y M M E T R Y ,   E L E C T R O N S
 =====================================
  
 Symmetry: ATOM

 Irreducible Representations, including subspecies
 -------------------------------------------------
 S
 P:x  P:y  P:z
 D:z2  D:x2-y2  D:xy  D:xz  D:yz
 F:z3  F:z  F:xyz  F:z2x  F:z2y  F:x  F:y


 Configuration of Valence Electrons
 ==================================

          Occupation Numbers
          -------------------------------------------------
 S        2*2
 P        4
 D        0
 F        0
          -------------------------------------------------

 Total:   8

 Net Charge: 0 (Nuclei minus Electrons)

 Preset values for MO occupations will be applied through SCF cycle no. 1000000
 Thereafter, the program will assign electrons to MOs that are spatially
 similar to the occupied MOs in a "reference" cycle ("KeepOrbitals").
 The reference cycle is always the PREVIOUS cycle: it will evolve with
 the SCF procedure.



 ================================
 (Slater-type)  F U N C T I O N S  ***  (Basis and Fit)  ***
 ================================
  

 Atom Type    1  (O)
 ==============

 Valence Basis Sets:  16
 -----------------------
   1 S   14.800000
   1 S    8.750000
   1 S    6.650000
   2 S    7.100000
   2 S    3.200000
   2 S    2.050000
   2 S    1.500000
   2 S    0.750000
   2 P    5.700000
   2 P    3.050000
   2 P    1.650000
   2 P    1.000000
   3 D    2.500000
   3 D    1.500000
   4 F    4.000000
   4 F    2.000000

 Charge Fitting Sets (for the computation of the Coulomb Potential):  37
 -----------------------------------------------------------------------
   1 S   29.600000
   1 S   22.760000
   1 S   17.500000
   1 S   11.580000
   2 S   14.160000
   2 S   10.290000
   2 S    7.480000
   2 S    5.430000
   3 S    5.780000
   3 S    4.410000
   3 S    3.370000
   3 S    2.570000
   3 S    1.960000
   3 S    1.500000
   2 P   14.450000
   2 P    9.770000
   2 P    6.610000
   3 P    6.560000
   3 P    4.710000
   3 P    3.390000
   3 P    2.430000
   3 P    1.750000
   3 D   11.400000
   3 D    7.640000
   3 D    5.120000
   4 D    4.550000
   4 D    3.200000
   4 D    2.250000
   4 F   12.750000
   4 F    8.120000
   4 F    5.170000
   5 F    4.130000
   5 F    2.750000
   5 G    9.700000
   5 G    6.560000
   5 G    4.440000
   5 G    3.000000


 BAS: List of all Elementary Cartesian Basis Functions
 =====================================================

 The numbering in the list below (to the right of the function characteristics) is referred
 to in print-outs of MO eigenvectors and Mulliken populations in the BAS representation
 (as contrasted to the SFO representation).

 Notes:
 1. The functions are characterized by a polynomial prefactor (powers of x,y,z and r) and
    an exponential decay factor alpha.
 2. Since the basis sets are specific for an atom TYPE, the individual functions occur on
    all atoms of that type.
 3. The word 'Core' in the left margin signals that it is a Core Function (CF) : not a
    degree of freedom in the valence set, but only used to ensure orthogonalization of
    the other valence basis functions on the frozen Core Orbitals.


 (power of) X  Y  Z  R     Alpha  on Atom
            ==========     =====     ==========

 O                                    1
                                  ---------------------------------------------------------------------------
            0  0  0  0    14.800      1
            0  0  0  0     8.750      2
            0  0  0  0     6.650      3
            0  0  0  1     7.100      4
            0  0  0  1     3.200      5
            0  0  0  1     2.050      6
            0  0  0  1     1.500      7
            0  0  0  1     0.750      8
            1  0  0  0     5.700      9
            0  1  0  0     5.700     10
            0  0  1  0     5.700     11
            1  0  0  0     3.050     12
            0  1  0  0     3.050     13
            0  0  1  0     3.050     14
            1  0  0  0     1.650     15
            0  1  0  0     1.650     16
            0  0  1  0     1.650     17
            1  0  0  0     1.000     18
            0  1  0  0     1.000     19
            0  0  1  0     1.000     20
            2  0  0  0     2.500     21
            1  1  0  0     2.500     22
            1  0  1  0     2.500     23
            0  2  0  0     2.500     24
            0  1  1  0     2.500     25
            0  0  2  0     2.500     26
            2  0  0  0     1.500     27
            1  1  0  0     1.500     28
            1  0  1  0     1.500     29
            0  2  0  0     1.500     30
            0  1  1  0     1.500     31
            0  0  2  0     1.500     32
            3  0  0  0     4.000     33
            2  1  0  0     4.000     34
            2  0  1  0     4.000     35
            1  2  0  0     4.000     36
            1  1  1  0     4.000     37
            1  0  2  0     4.000     38
            0  3  0  0     4.000     39
            0  2  1  0     4.000     40
            0  1  2  0     4.000     41
            0  0  3  0     4.000     42
            3  0  0  0     2.000     43
            2  1  0  0     2.000     44
            2  0  1  0     2.000     45
            1  2  0  0     2.000     46
            1  1  1  0     2.000     47
            1  0  2  0     2.000     48
            0  3  0  0     2.000     49
            0  2  1  0     2.000     50
            0  1  2  0     2.000     51
            0  0  3  0     2.000     52

 Total number of charge fitting functions (nprimf)       184
 Total number of Cartesian basis functions (naos)         52
 Total number of Cartesian core functions  (ncos)          0



 BAS: List of all Elementary Cartesian Basis Functions
 =====================================================

 The numbering in the list below (to the right of the function characteristics) is referred
 to in print-outs of MO eigenvectors and Mulliken populations in the BAS representation
 (as contrasted to the SFO representation).

 Notes:
 1. The functions are characterized by a polynomial prefactor (powers of x,y,z and r) and
    an exponential decay factor alpha.
 2. Since the basis sets are specific for an atom TYPE, the individual functions occur on
    all atoms of that type.
 3. The word 'Core' in the left margin signals that it is a Core Function (CF) : not a
    degree of freedom in the valence set, but only used to ensure orthogonalization of
    the other valence basis functions on the frozen Core Orbitals.


 (power of) X  Y  Z  R     Alpha  on Atom
            ==========     =====     ==========

 O                                    1
                                  ---------------------------------------------------------------------------
            0  0  0  0    14.800      1
            0  0  0  0     8.750      2
            0  0  0  0     6.650      3
            0  0  0  1     7.100      4
            0  0  0  1     3.200      5
            0  0  0  1     2.050      6
            0  0  0  1     1.500      7
            0  0  0  1     0.750      8
            1  0  0  0     5.700      9
            0  1  0  0     5.700     10
            0  0  1  0     5.700     11
            1  0  0  0     3.050     12
            0  1  0  0     3.050     13
            0  0  1  0     3.050     14
            1  0  0  0     1.650     15
            0  1  0  0     1.650     16
            0  0  1  0     1.650     17
            1  0  0  0     1.000     18
            0  1  0  0     1.000     19
            0  0  1  0     1.000     20
            2  0  0  0     2.500     21
            1  1  0  0     2.500     22
            1  0  1  0     2.500     23
            0  2  0  0     2.500     24
            0  1  1  0     2.500     25
            0  0  2  0     2.500     26
            2  0  0  0     1.500     27
            1  1  0  0     1.500     28
            1  0  1  0     1.500     29
            0  2  0  0     1.500     30
            0  1  1  0     1.500     31
            0  0  2  0     1.500     32
            3  0  0  0     4.000     33
            2  1  0  0     4.000     34
            2  0  1  0     4.000     35
            1  2  0  0     4.000     36
            1  1  1  0     4.000     37
            1  0  2  0     4.000     38
            0  3  0  0     4.000     39
            0  2  1  0     4.000     40
            0  1  2  0     4.000     41
            0  0  3  0     4.000     42
            3  0  0  0     2.000     43
            2  1  0  0     2.000     44
            2  0  1  0     2.000     45
            1  2  0  0     2.000     46
            1  1  1  0     2.000     47
            1  0  2  0     2.000     48
            0  3  0  0     2.000     49
            0  2  1  0     2.000     50
            0  1  2  0     2.000     51
            0  0  3  0     2.000     52
1
 ***************************************************************************************************



                                              ***********************
                                              *  T E C H N I C A L  *
                                              ***********************
  



 =============================================================
 P A R A L L E L I Z A T I O N  and  V E C T O R I Z A T I O N
 =============================================================
  
 Nr of parallel processes:                                1
 Maximum vector length in NumInt loops:                 128



 ===============
 I O  vs.  C P U  ***  (store numerical data on disk or recalculate)  ***
 ===============
  
 Basis functions:   recalculate when needed
 Fit functions:     recalculate when needed

 IO buffersize (Mb):                                     64.000000



 =====================
 S C F   U P D A T E S
 =====================
  
 Max. nr. of cycles:                               100
 Convergence criterion:                              0.0000000100
   secondary criterion:                              0.0000000100

 Mix parameter (when DIIS does not apply):           0.2000000000
 Special mix parameter for the first cycle:          1.0000000000


 DIIS (Direct Inversion in Iteration Space)
    Replace damping when SCF Error is below:         0.5000000000
    Apply anyway after SCF cycle:
                                                     5
    (Max.) nr. of expansion vectors:                10

    Upperbound on expansion coefficients:            5.0000000000
    (when exceeded, IterationSpace is re-built)
    2nd Upperbound on coefficients:                 25.0000000000
    (when exceeded, simple damping will be used)
 Automatic ElectronSmearing (in case of problematic SCF convergence) disabled



 =================
 P R E C I S I O N  ***  (General: NumInt, NeglectFunctionTails, ...)  ***
 =================
  

 NumInt:           Target precision:                10.0000000000
 -------           Initial precision:               10.0000000000
                   Min. precision (optimization):   10.0000000000

 Neglect Functions:          Basis functions:        0.1000000000E-11
 ------------------          Fit functions:          0.1000000000E-11



 ===========================
 L I N E A R   S C A L I N G
 ===========================
  

 Cut-off radii density fit:                        0.1000000000E-13
 Overlap cut-off criterion AO matrix elements:     0.1000000000E-11
 Cut-offs for Coulomb potential and fitted density:0.1000000000E-13
 Cut-off criterion for Coulomb multipole terms:    0.1000000000E-13
 Progressive Convergence parameter:                 0.000000000    
1
 ***************************************************************************************************



                                            ***************************
                                            *  C O M P U T A T I O N  *
                                            ***************************
  

 Number of elements of the density matrix on this node (used, total):      1378      1378



 ====================================================
 Numerical Integration : Voronoi Polyhedra (Te Velde)
 ====================================================
  
 General Accuracy Parameter :                         10.00

 Symmetry used in the points section:  ATOM  


 Summary of the Symmetry Unique Points:
 --------------------------------------
    Nr. of used Symmetry Operators                     1

    Points in the Atomic Spheres                      61
    Points in the Atomic Polyhedra                     0
    Points in the Outer Region                         0
    ----------------------------------------------------
    Total                                             61

    Sum of Weights                                 58501.056183

 Total nr. of points:         61
 Nr. of blocks:                1
 Block length:                61
 Nr. of dummy points:          0


 Test of Precision of the Numerical Integration Grid
 ===================================================

 Integral of the Total Core Density:                   0.00000000000000



 =====
 S C F
 =====
  

 CYCLE    1
 orbitals (Q,E):
 ---------------
 S :1...8            ( 2.00   -32.0159)  ( 2.00    -8.0044)  ( 0.00    -3.5574)  ( 0.00    -1.9901)
                     ( 0.00    -1.2515)  ( 0.00     4.1058)  ( 0.00    41.2206)  ( 0.00   308.5800)
 P :1...4            ( 4.00    -7.9758)  ( 0.00    -3.5116)  ( 0.00    -1.8856)  ( 0.00     3.1956)
 D :1...2            ( 0.00    -3.5495)  ( 0.00    -1.9917)
 F :1...2            ( 0.00    -1.9999)  ( 0.00     1.0590)

 CYCLE    2
 d-Pmat  mean:  0.11E+01
 imax=      3: -0.25E+02
 orbitals (Q,E):
 ---------------
 S :1...3            ( 2.00   -14.5566)  ( 2.00    -0.0356)  ( 0.00     0.1667)
 P :1...2            ( 4.00     0.2048)  ( 0.00     0.7903)
 D :1...1            ( 0.00     0.7381)
 F :1...1            ( 0.00     1.6042)

 CYCLE    3
 d-Pmat  mean:  0.30E+00
 imax=     20: -0.24E+01
 orbitals (Q,E):
 ---------------
 S :1...3            ( 2.00   -16.2388)  ( 2.00    -0.4301)  ( 0.00     0.0620)
 P :1...2            ( 4.00     0.0108)  ( 0.00     0.4058)
 D :1...1            ( 0.00     0.5775)
 F :1...1            ( 0.00     1.4155)

 CYCLE    4
 d-Pmat  mean:  0.10E+00
 imax=     20: -0.11E+01
 orbitals (Q,E):
 ---------------
 S :1...3            ( 2.00   -17.2725)  ( 2.00    -0.6986)  ( 0.00     0.0275)
 P :1...2            ( 4.00    -0.1717)  ( 0.00     0.2612)
 D :1...1            ( 0.00     0.5085)
 F :1...1            ( 0.00     1.3362)

 CYCLE    5
 d-Pmat  mean:  0.56E-01
 imax=      3:  0.70E+00
 orbitals (Q,E):
 ---------------
 S :1...3            ( 2.00   -18.8741)  ( 2.00    -0.8425)  ( 0.00     0.0251)
 P :1...2            ( 4.00    -0.2957)  ( 0.00     0.2201)
 D :1...1            ( 0.00     0.5505)
 F :1...1            ( 0.00     1.3859)

 CYCLE    6
 d-Pmat  mean:  0.57E-02
 imax=      2:  0.75E-01
 orbitals (Q,E):
 ---------------
 S :1...3            ( 2.00   -18.9263)  ( 2.00    -0.8875)  ( 0.00     0.0144)
 P :1...2            ( 4.00    -0.3386)  ( 0.00     0.1983)
 D :1...1            ( 0.00     0.5241)
 F :1...1            ( 0.00     1.3583)

 CYCLE    7
 d-Pmat  mean:  0.80E-03
 imax=      6: -0.45E-02
 orbitals (Q,E):
 ---------------
 S :1...3            ( 2.00   -18.9106)  ( 2.00    -0.8796)  ( 0.00     0.0160)
 P :1...2            ( 4.00    -0.3310)  ( 0.00     0.2007)
 D :1...1            ( 0.00     0.5265)
 F :1...1            ( 0.00     1.3609)

 CYCLE    8
 d-Pmat  mean:  0.91E-04
 imax=      6:  0.77E-03
 orbitals (Q,E):
 ---------------
 S :1...3            ( 2.00   -18.9122)  ( 2.00    -0.8804)  ( 0.00     0.0159)
 P :1...2            ( 4.00    -0.3317)  ( 0.00     0.2005)
 D :1...1            ( 0.00     0.5262)
 F :1...1            ( 0.00     1.3606)

 CYCLE    9
 d-Pmat  mean:  0.72E-06
 imax=      2: -0.12E-04
 orbitals (Q,E):
 ---------------
 S :1...3            ( 2.00   -18.9122)  ( 2.00    -0.8804)  ( 0.00     0.0159)
 P :1...2            ( 4.00    -0.3317)  ( 0.00     0.2005)
 D :1...1            ( 0.00     0.5262)
 F :1...1            ( 0.00     1.3606)

 CYCLE   10
 d-Pmat  mean:  0.12E-07
 imax=      6: -0.16E-06
 orbitals (Q,E):
 ---------------
 S :1...3            ( 2.00   -18.9122)  ( 2.00    -0.8804)  ( 0.00     0.0159)
 P :1...2            ( 4.00    -0.3317)  ( 0.00     0.2005)
 D :1...1            ( 0.00     0.5262)
 F :1...1            ( 0.00     1.3606)

 CYCLE   11
 d-Pmat  mean:  0.11E-09
 imax=      6: -0.12E-08
 orbitals (Q,E):
 ---------------
 S :1...3            ( 2.00   -18.9122)  ( 2.00    -0.8804)  ( 0.00     0.0159)
 P :1...2            ( 4.00    -0.3317)  ( 0.00     0.2005)
 D :1...1            ( 0.00     0.5262)
 F :1...1            ( 0.00     1.3606)

 SCF CONVERGED

 CYCLE   12
1
 ***************************************************************************************************



                                                *******************
                                                *  R E S U L T S  *
                                                *******************
  
 *** Setting up for NEW gradients in focky
 *** Using FIT density in focky

 Scaled ZORA Orbital Energies, per Irrep and Spin:
 =================================================
                        Occup              E (au)              E (eV)       Diff (eV) with prev. cycle
                        -----      --------------------        ------       --------------------------
 S
               1        2.000     -0.18912163588984E+02      -514.626              -7.16E-09
               2        2.000     -0.88042536044543E+00       -23.958              -7.12E-09
               3        0.000      0.15917239287972E-01         0.433
               4        0.000      0.47157189633591E+00        12.832
               5        0.000      0.25092163529346E+01        68.279
               6        0.000      0.11901959076240E+02       323.869
               7        0.000      0.52347890774294E+02      1424.459
               8        0.000      0.32159312651573E+03      8750.994
 P
               1        4.000     -0.33172720151306E+00        -9.027              -6.97E-09
               2        0.000      0.20052917629028E+00         5.457
               3        0.000      0.16594440941108E+01        45.156
               4        0.000      0.12142335979422E+02       330.410
 D
               1        0.000      0.52623159764820E+00        14.319
               2        0.000      0.24055384908689E+01        65.458
 F
               1        0.000      0.13606224427136E+01        37.024
               2        0.000      0.70188296925037E+01       190.992


 Partially Occupied:
               1 P                -0.33172720151306E+00
  
 HOMO :        2 S                -0.88042536044543E+00
 LUMO :        3 S                 0.15917239287972E-01
  


 Orbital Energies, all Irreps
 ========================================

 Irrep        no.  (spin)   Occup              E (au)                E (eV)
 ---------------------------------------------------------------------------
 S             1             2.00       -0.18912163588984E+02      -514.6262
 S             2             2.00       -0.88042536044543E+00       -23.9576
 P             1             4.00       -0.33172720151306E+00        -9.0268
 S             3             0.00        0.15917239287972E-01         0.4331
 P             2             0.00        0.20052917629028E+00         5.4567
 S             4             0.00        0.47157189633591E+00        12.8321
 D             1             0.00        0.52623159764820E+00        14.3195
 F             1             0.00        0.13606224427136E+01        37.0244
 P             3             0.00        0.16594440941108E+01        45.1558
 D             2             0.00        0.24055384908689E+01        65.4580
 S             5             0.00        0.25092163529346E+01        68.2793
 F             2             0.00        0.70188296925037E+01       190.9921
 S             6             0.00        0.11901959076240E+02       323.8688
 P             4             0.00        0.12142335979422E+02       330.4098
 S             7             0.00        0.52347890774294E+02      1424.4586
 S             8             0.00        0.32159312651573E+03      8750.9942


 All Electron Calculation, thus no Orbital Energies of the Core Orbitals are calculated



 =======================================
 M U L L I K E N   P O P U L A T I O N S
 =======================================
  
 The survey below gives for each atom:
 a) the total charge (Z minus electrons)
 b) the net spin polarization (nr of electrons spin-A minus spin-B)
 c) for each spin the atomic electron valence density (integrated) per L-value.

 Atom              Charge    Spin density          S         P         D         F
 ----              ------    ------------       ------    ------    ------    ------
 1 O               0.0000                       4.0000    4.0000    0.0000    0.0000

 Populations of individual BAS functions
 ----------------------------------------
 1 O            0.0407  0.7707  1.2791 -0.1485  0.7639  1.0393  0.2537  0.0009  0.0450  0.0450
                0.0450  0.4807  0.4807  0.4807  0.6422  0.6422  0.6422  0.1654  0.1654  0.1654
                0.0000  0.0000  0.0000  0.0000  0.0000  0.0000  0.0000  0.0000  0.0000  0.0000
                0.0000  0.0000  0.0000  0.0000  0.0000  0.0000  0.0000  0.0000  0.0000  0.0000
                0.0000  0.0000  0.0000  0.0000  0.0000  0.0000  0.0000  0.0000  0.0000  0.0000
                0.0000  0.0000

 Gross Charges per Atom (Z minus electrons)
 ==========================================
             0.0000
 Net Total:  0.00000000


 Atom-Atom Population Matrix (off-diagonal elements not doubled)
 ===============================================================

     1 :     8.0000



 =============
 Dipole Moment  ***  (Debye)  ***
 =============
  
 Vector   :         0.00000000      0.00000000      0.00000000
 Magnitude:         0.00000000

 This molecular dipole moment is calculated with analytic integration



 =========================================
 Quadrupole Moment (Buckingham convention)  ***  (a.u.)  ***
 =========================================
  
      quad-xx        quad-xy        quad-xz        quad-yy        quad-yz        quad-zz
      0.00000000     0.00000000     0.00000000     0.00000000     0.00000000     0.00000000

 This molecular quadrupole moment is calculated with analytic integration



 ===============================================================================
 Electrostatic potential at the Nuclei due to valence electrons and other nuclei
 ===============================================================================
  
         Atom                  Potential
         ----                  ---------
     1)   O                  22.26490088
 
 
 ========================
 No memory problems found
 ========================
 
 Maximum number of active allocate calls:         476
 
 *******************************************************************************

                             A D F   E X I T
 NORMAL TERMINATION



 =================
 Timing Statistics
 =================
  
 Total Used :                     CPU=        0.29      System=        0.05     Elapsed=        1.19

 Calls  Section                     ( Mean, Percentage )
 ---------------------------------------------------------------------------------------------------
     3  ><      ................      0.00    0.51             0.00    0.02             0.00    1.17
     1  INIT    ................      0.01    3.14             0.00   10.46             0.26   21.75
     1  GEOMET  ................      0.01    2.53             0.02   41.38             0.08    7.06
     1  INPUTA  ................      0.00    0.73             0.00    0.95             0.00    0.29
     1  MAINSY  ................      0.01    1.84             0.00    9.63             0.06    4.95
     1  SYMFIT  ................      0.00    0.13             0.00    0.00             0.00    0.03
     1  CORORT  ................      0.00    0.18             0.00    0.00             0.01    0.81
     1  SYMORB  ................      0.00    0.43             0.00    0.00             0.00    0.11
     1  FITINT  ................      0.01    2.77             0.00    0.00             0.02    1.96
     1  CLSMAT  ................      0.00    0.22             0.00    0.00             0.04    3.66
     1  ORTHON  ................      0.00    0.71             0.00    0.97             0.04    3.73
     1  GENPT   ................      0.01    3.30             0.00    2.84             0.10    8.01
     1  PTBAS   ................      0.00    1.11             0.00    0.00             0.01    0.66
    12  FOCKY   ................      0.01   48.93             0.00    7.35             0.02   20.31
    12  FOCKTR  ................      0.00    1.57             0.00    0.41             0.00    0.40
    12  FOCKNM  ................      0.00    0.16             0.00    0.05             0.00    0.04
    12  SDIIS   ................      0.00    2.54             0.00    0.63             0.01   11.21
    12  EMERGE  ................      0.00   16.79             0.00   15.84             0.01    7.17
     1  COREPS  ................      0.01    1.90             0.00    0.00             0.01    0.80
     1  POPAN   ................      0.00    1.32             0.00    0.00             0.01    0.91
     1  DEBYE   ................      0.00    0.33             0.00    0.31             0.01    0.97
     1  QMPOT   ................      0.00    0.41             0.00    8.74             0.01    0.45
     1  EXIT PROCEDURE .........      0.02    8.44             0.00    0.42             0.04    3.54


 Currently Open Files (EXIT00)
 ====================

 Unit    Access Format  Status   Type       Ident (file)
 -------------------------------------------------------
   3      SEQ    FORM   TRANSP  NORMAL      LOGFILE
                                          ( logfile )


 Buffered I/O statistics
 =======================
 Memory available:                     67108864
 Number of records fitting in memory:     16131
 Input :   0.9% of                         6430  *4k bytes
 Output:   8.3% of                         2767  *4k bytes
 Records from serial files evicted:           0
                    others evicted:           0
 Hash table lookups:      25047 with          0 conflicts (  0.00%)

 ***************************************************************************************************
 (LOGFILE)
 <Jan01-2013> <00:00:00>  DIRAC 2013.01  RunTime: Jan01-2013 00:00:00  Nodes: 1  Procs: 1
 <Jan01-2013> <00:00:00>  NORMAL TERMINATION
 <Jan01-2013> <00:00:00>  END
 <Jan01-2013> <00:00:01>  ADF 2013.01  RunTime: Jan01-2013 00:00:01  Nodes: 1  Procs: 1
 <Jan01-2013> <00:00:01>  Hydrogen (QZ, all electron, 5S 2P 2D)
 <Jan01-2013> <00:00:01>  RunType   : CREATE
 <Jan01-2013> <00:00:01>  Net Charge: 0 (Nuclei minus Electrons)
 <Jan01-2013> <00:00:01>  Symmetry  : ATOM
  Coordinates
    Atom         X           Y           Z   (Angstrom)
    1.H         0.000000    0.000000    0.000000
 <Jan01-2013> <00:00:01>  >>>> CORORT
 <Jan01-2013> <00:00:01>  >>>> FITINT
 <Jan01-2013> <00:00:01>  >>>> CLSMAT
 <Jan01-2013> <00:00:01>  >>>> ORTHON
 <Jan01-2013> <00:00:01>  >>>> GENPT
 <Jan01-2013> <00:00:01>  Acc.Num.Int.=  10.000
 <Jan01-2013> <00:00:01>  Block Length=  44
 <Jan01-2013> <00:00:01>  >>>> PTBAS
 <Jan01-2013> <00:00:01>  >>>> CYCLE
 <Jan01-2013> <00:00:01>    1
 <Jan01-2013> <00:00:01>    2  ErrMat   0.03803841  MaxEl  0.03078708
 <Jan01-2013> <00:00:01>    3  ErrMat   0.00916622  MaxEl -0.00901560
 <Jan01-2013> <00:00:01>    4  ErrMat   0.00035667  MaxEl  0.00031421
 <Jan01-2013> <00:00:02>    5  ErrMat   0.00000962  MaxEl -0.00000892
 <Jan01-2013> <00:00:02>    6  ErrMat   0.00000013  MaxEl  0.00000008
 <Jan01-2013> <00:00:02>    7  ErrMat   0.00000000  MaxEl  0.00000000
 <Jan01-2013> <00:00:02>  SCF converged
 <Jan01-2013> <00:00:02>    8  ErrMat   0.00000000  MaxEl  0.00000000
 <Jan01-2013> <00:00:02>   Solutions with partially occupied orbitals may not be
 <Jan01-2013> <00:00:02>   lowest in energy. You might consider lowering the
 <Jan01-2013> <00:00:02>   symmetry in the input and explicitly specifying integer
 <Jan01-2013> <00:00:02>   occupations. In that case always check that you obtain
 <Jan01-2013> <00:00:02>   an aufbau solution.
 <Jan01-2013> <00:00:02>  >>>> POPAN
 <Jan01-2013> <00:00:02>  >>>> DEBYE
 <Jan01-2013> <00:00:02>  NORMAL TERMINATION
 <Jan01-2013> <00:00:02>  END
 <Jan01-2013> <00:00:02>  DIRAC 2013.01  RunTime: Jan01-2013 00:00:02  Nodes: 1  Procs: 1
 <Jan01-2013> <00:00:02>  NORMAL TERMINATION
 <Jan01-2013> <00:00:02>  END
 <Jan01-2013> <00:00:03>  ADF 2013.01  RunTime: Jan01-2013 00:00:03  Nodes: 1  Procs: 1
 <Jan01-2013> <00:00:03>  Oxygen (QZ, all electron, 8S 4P 2D 2F)
 <Jan01-2013> <00:00:03>  RunType   : CREATE
 <Jan01-2013> <00:00:03>  Net Charge: 0 (Nuclei minus Electrons)
 <Jan01-2013> <00:00:03>  Symmetry  : ATOM
  Coordinates
    Atom         X           Y           Z   (Angstrom)
    1.O         0.000000    0.000000    0.000000
 <Jan01-2013> <00:00:03>  >>>> CORORT
 <Jan01-2013> <00:00:03>  >>>> FITINT
 <Jan01-2013> <00:00:03>  >>>> CLSMAT
 <Jan01-2013> <00:00:03>  >>>> ORTHON
 <Jan01-2013> <00:00:03>  >>>> GENPT
 <Jan01-2013> <00:00:03>  Acc.Num.Int.=  10.000
 <Jan01-2013> <00:00:03>  Block Length=  61
 <Jan01-2013> <00:00:03>  >>>> PTBAS
 <Jan01-2013> <00:00:03>  >>>> CYCLE
 <Jan01-2013> <00:00:03>    1
 <Jan01-2013> <00:00:03>    2  ErrMat   9.74921119  MaxEl  4.13901188
 <Jan01-2013> <00:00:03>    3  ErrMat   3.70162575  MaxEl -2.91656479
 <Jan01-2013> <00:00:03>    4  ErrMat   2.94969143  MaxEl -1.91814781
 <Jan01-2013> <00:00:03>    5  ErrMat   1.88970508  MaxEl -1.07111528
 <Jan01-2013> <00:00:03>    6  ErrMat   0.04645268  MaxEl -0.01876707
 <Jan01-2013> <00:00:03>    7  ErrMat   0.02377733  MaxEl  0.01063637
 <Jan01-2013> <00:00:03>    8  ErrMat   0.00251040  MaxEl -0.00114123
 <Jan01-2013> <00:00:03>    9  ErrMat   0.00000968  MaxEl -0.00000432
 <Jan01-2013> <00:00:03>   10  ErrMat   0.00000018  MaxEl  0.00000007
 <Jan01-2013> <00:00:03>   11  ErrMat   0.00000000  MaxEl  0.00000000
 <Jan01-2013> <00:00:03>  SCF converged
 <Jan01-2013> <00:00:03>   12  ErrMat   0.00000000  MaxEl  0.00000000
 <Jan01-2013> <00:00:03>   Solutions with partially occupied orbitals may not be
 <Jan01-2013> <00:00:03>   lowest in energy. You might consider lowering the
 <Jan01-2013> <00:00:03>   symmetry in the input and explicitly specifying integer
 <Jan01-2013> <00:00:03>   occupations. In that case always check that you obtain
 <Jan01-2013> <00:00:03>   an aufbau solution.
 <Jan01-2013> <00:00:03>  >>>> POPAN
 <Jan01-2013> <00:00:03>  >>>> DEBYE
 <Jan01-2013> <00:00:04>  NORMAL TERMINATION
 <Jan01-2013> <00:00:04>  END

 *******************************************************************************
 *                                                                             *
 *  -------------------------------------                                      *
 *   Amsterdam Density Functional  (ADF)         2013.01   April 2, 2013       *
 *  -------------------------------------                                      *
 *                                               Build 201304112106            *
 *                                                                             *
 *                                                                             *
 *                            =====================                            *
 *                            |                   |                            *
 *                            |     D I R A C     |                            *
 *                            |                   |                            *
 *                            =====================                            *
 *                                                                             *
 *                                                                             *
 *   Online information and documentation:  http://www.scm.com                 *
 *   E-mail:  support@scm.com   info@scm.com                                   *
 *                                                                             *
 *   Scientific publications using ADF results must be properly referenced     *
 *   See the User Manuals (or the web site) for recommended citations          *
 *   The terms and conditions of the End User License Agreement apply to       *
 *   the use of ADF, http://www.scm.com/Sales/LicAgreement.html                *
 *                                                                             *
 ****************************  x86_64_linux_intel  *****************************
 
 Licensed to: Prof. Cacier Hadad / University of Antioquia / Medellin / COLOMBIA
 SCM User ID: u15319
  
 DIRAC 2013.01  RunTime: Jan01-2013 00:00:04  Nodes: 1  Procs: 1

 Temporary files are created in /tmp/kid_0.6sFp1U

1
 MERCURY ATOM all electron RELATIVISTIC, Point Nuc, A and c f
 N J RN H ZN XION ANUC CLIGHT
 5000   22100.00000000197.36710137 80.00000000  0.00000000  201.970625  0.1370360E+03
  PH   PHI     EPS        DEL        DELRVR
  0.30  0.30     2500.00  0.00001000  0.00001000
 IDIRC  NC1  NDEBU NPRIN  IPUN IRCOR IWCOR
   1   300     0     0     0     0     0
   XALPHA      XLATTER      RNUC
  0.70000000  0.00000000  0.00000000 Point Charge
   XN   XL   XJ      XE          XZ      XDELL
  1.0  0.0  0.5   -2600.000       2.000     0.00000
  2.0  0.0  0.5    -425.000       2.000     0.00000
  2.0  1.0  0.5    -425.000       2.000     0.00000
  2.0  1.0  1.5    -425.000       4.000     0.00000
  3.0  0.0  0.5    -100.000       2.000     0.00000
  3.0  1.0  0.5    -100.000       2.000     0.00000
  3.0  1.0  1.5    -100.000       4.000     0.00000
  3.0  2.0  1.5     -80.000       4.000     0.00000
  3.0  2.0  2.5     -80.000       6.000     0.00000
  4.0  0.0  0.5     -22.000       2.000     0.00000
  4.0  1.0  0.5     -20.000       2.000     0.00000
  4.0  1.0  1.5     -20.000       4.000     0.00000
  4.0  2.0  1.5     -11.000       4.000     0.00000
  4.0  2.0  2.5     -11.000       6.000     0.00000
  5.0  0.0  0.5      -3.000       2.000     0.00000
  5.0  1.0  0.5      -2.200       2.000     0.00000
  5.0  1.0  1.5      -2.200       4.000     0.00000
  4.0  3.0  2.5      -1.000       6.000     0.00000
  4.0  3.0  3.5      -1.000       8.000     0.00000
  5.0  2.0  1.5      -0.500       4.000     0.00000
  5.0  2.0  2.5      -0.500       6.000     0.00000
  6.0  0.0  0.5      -0.200       2.000     0.00000
 ICORP=  0  NPCL=  0  DEMP=0.00  PEPS=0.000000
 R(1)=  0.1000000E-08 D=  0.1005080E+01 RNUC=  0.0000000E+00
 converged at cycle   71  DENSITY AVERAGING    0.0786
  MAXIMUM ERROR IN R.V(R) IS   0.62886379E-05
 Q,EY,EV,EZ,ESUM,ETOT,RHO  0.800000E+02 -0.496572E+03 -0.348382E+05 -0.496228E+05 -0.121443E+05 -0.196607E+05  0.241251E-08


 DIRAC CALCULATION
1                    MERCURY ATOM all electron RELATIVISTIC, Point Nuc, A and c from libtc


 EXCHANGE COEFFICIENT=  0.7000000           TAIL CORRECTION=  0.           NUCLEAR RADIUS=  0.000E+00
0                       ORBITAL    N    L    J     ELECTRONS     EIGENVALUE                DELTA OF EIGENV.

                          1S1/2  1.0  0.0  0.5     2.000       -0.3050991E+04                 0.4924760E-04
                          2S1/2  2.0  0.0  0.5     2.000       -0.5405089E+03                 0.4254074E-04
                          2P1/2  2.0  1.0  0.5     2.000       -0.5187363E+03                 0.4411548E-04
                          2P3/2  2.0  1.0  1.5     4.000       -0.4471398E+03                 0.4301762E-04
                          3S1/2  3.0  0.0  0.5     2.000       -0.1282616E+03                 0.3041592E-04
                          3P1/2  3.0  1.0  0.5     2.000       -0.1184367E+03                 0.3137989E-04
                          3P3/2  3.0  1.0  1.5     4.000       -0.1025748E+03                 0.2995242E-04
                          3D3/2  3.0  2.0  1.5     4.000       -0.8626975E+02                 0.3222472E-04
                          3D5/2  3.0  2.0  2.5     6.000       -0.8286728E+02                 0.3175282E-04
                          4S1/2  4.0  0.0  0.5     2.000       -0.2816781E+02                 0.1668735E-04
                          4P1/2  4.0  1.0  0.5     2.000       -0.2395484E+02                 0.1669817E-04
                          4P3/2  4.0  1.0  1.5     4.000       -0.2011425E+02                 0.1516031E-04
                          4D3/2  4.0  2.0  1.5     4.000       -0.1321824E+02                 0.1506585E-04
                          4D5/2  4.0  2.0  2.5     6.000       -0.1250170E+02                 0.1460097E-04
                          5S1/2  5.0  0.0  0.5     2.000       -0.4322160E+01                 0.4190347E-05
                          5P1/2  5.0  1.0  0.5     2.000       -0.2925196E+01                 0.3615407E-05
                          5P3/2  5.0  1.0  1.5     4.000       -0.2244086E+01                 0.2893507E-05
                          4F5/2  4.0  3.0  2.5     6.000       -0.3611586E+01                 0.1388062E-04
                          4F7/2  4.0  3.0  3.5     8.000       -0.3456598E+01                 0.1362401E-04
                          5D3/2  5.0  2.0  1.5     4.000       -0.3813662E+00                 0.1502810E-05
                          5D5/2  5.0  2.0  2.5     6.000       -0.3130964E+00                 0.1345942E-05
                          6S1/2  6.0  0.0  0.5     2.000       -0.2314499E+00                 0.2838078E-06


                                        NUCLEAR CHARGE=   80.000000
                            INTEGRAL OF CHARGE DENSITY=   80.000000
                           SUM OF THE ORBITAL ENERGIES= -12144.2566
                                          TOTAL ENERGY= -19660.7046
                                        KINETIC ENERGY=  22693.9156
                             NUCLEAR ATTRACTION ENERGY= -49622.7822
                             ELECTRON REPULSION ENERGY=   7640.5911
                                       EXCHANGE ENERGY=   -372.4292

 *******************************************************************************

                             D I R A C   E X I T
 NORMAL TERMINATION



 =================
 Timing Statistics
 =================
  
 Total Used :                     CPU=        0.86      System=        0.02     Elapsed=        1.01

 Calls  Section                     ( Mean, Percentage )
 ---------------------------------------------------------------------------------------------------
[...]
 <Jan01-2013> <08:58:59>    4  ErrMat   0.00510196  MaxEl  0.00054894
 <Jan01-2013> <08:59:12>    5  ErrMat   0.00111429  MaxEl  0.00014682
 <Jan01-2013> <08:59:25>    6  ErrMat   0.00031286  MaxEl -0.00005251
 <Jan01-2013> <08:59:38>    7  ErrMat   0.00015880  MaxEl  0.00002349
 <Jan01-2013> <08:59:52>    8  ErrMat   0.00004870  MaxEl  0.00000653
 <Jan01-2013> <09:00:04>    9  ErrMat   0.00000912  MaxEl  0.00000156
 <Jan01-2013> <09:00:17>   10  ErrMat   0.00000575  MaxEl -0.00000068
 <Jan01-2013> <09:00:24>  SCF converged
 <Jan01-2013> <09:00:30>   11  ErrMat   0.00000114  MaxEl -0.00000013
 <Jan01-2013> <09:00:41>  >>>> TOTEN
 <Jan01-2013> <09:00:56>  >>>> POPAN
 <Jan01-2013> <09:00:56>  >>>> DEBYE
 <Jan01-2013> <09:00:57>  >>>> AMETS
 <Jan01-2013> <09:00:57>  >>>> ENGRAD
  Coordinates in Frequency Displacement 88
    Atom         X           Y           Z   (Angstrom)
    1.Hg       -0.406051   -0.422620   -0.299946
    2.O         3.170054    0.892246   -0.513940
    3.H         3.703019    1.277537    0.207753
    4.H         3.704926    1.022469   -1.320328
    5.O        -1.682025   -0.822319    1.693132
    6.H        -2.195948   -0.093572    2.090770
    7.H        -1.246879   -1.272379    2.442490
    8.O         0.639416    1.475663   -0.412886
    9.H         1.653041    1.362980   -0.537956
   10.H         0.305444    2.139871   -1.045490
   11.O         1.670844   -1.478334    0.070955
   12.H         1.865050   -2.387874   -0.219427
   13.H         2.446167   -0.918409   -0.162217
   14.O        -1.794482   -2.019146   -0.978441
   15.H        -2.170883   -1.988730   -1.880356
   16.H        -2.534382   -2.169387   -0.356555
 <Jan01-2013> <09:05:58>  >>>> CORORT
 <Jan01-2013> <09:05:58>  >>>> FITINT
 <Jan01-2013> <09:06:01>  >>>> CLSMAT
 <Jan01-2013> <09:06:05>  >>>> ORTHON
 <Jan01-2013> <09:06:05>  >>>> GENPT
 <Jan01-2013> <09:06:05>  Acc.Num.Int.=   6.000
 <Jan01-2013> <09:06:05>  Reusing previous cell geometry for gradient smoothing.
 <Jan01-2013> <09:06:06>  Block Length= 128
 <Jan01-2013> <09:06:06>  >>>> PTBAS
 <Jan01-2013> <09:07:30>  >>>> CYCLE
 <Jan01-2013> <09:07:35>    1
 <Jan01-2013> <09:07:43>    2  ErrMat   0.00004190  MaxEl -0.00001037
 <Jan01-2013> <09:07:51>    3  ErrMat   0.00001914  MaxEl -0.00000447
 <Jan01-2013> <09:08:13>    4  ErrMat   0.00001119  MaxEl -0.00000206
 <Jan01-2013> <09:08:21>    5  ErrMat   0.00000419  MaxEl  0.00000043
 <Jan01-2013> <09:08:25>  SCF converged
 <Jan01-2013> <09:08:30>    6  ErrMat   0.00000180  MaxEl -0.00000026
 <Jan01-2013> <09:08:38>  >>>> TOTEN
 <Jan01-2013> <09:08:47>  >>>> POPAN
 <Jan01-2013> <09:08:47>  >>>> DEBYE
 <Jan01-2013> <09:08:47>  >>>> AMETS
 <Jan01-2013> <09:08:47>  >>>> ENGRAD
  Coordinates in Frequency Displacement 89
    Atom         X           Y           Z   (Angstrom)
    1.Hg       -0.406051   -0.422620   -0.299946
    2.O         3.170054    0.892246   -0.513940
    3.H         3.703019    1.277537    0.207753
    4.H         3.704926    1.022469   -1.320328
    5.O        -1.682025   -0.822319    1.693132
    6.H        -2.195948   -0.093572    2.090770
    7.H        -1.246879   -1.272379    2.442490
    8.O         0.639416    1.475663   -0.412886
    9.H         1.653041    1.362980   -0.537956
   10.H         0.305444    2.139871   -1.045490
   11.O         1.670844   -1.478334    0.070955
   12.H         1.865050   -2.387874   -0.219427
   13.H         2.446167   -0.918409   -0.162217
   14.O        -1.794482   -2.019146   -0.978441
   15.H        -2.170883   -1.998730   -1.890356
   16.H        -2.534382   -2.169387   -0.356555
 <Jan01-2013> <09:10:26>  >>>> CORORT
 <Jan01-2013> <09:10:26>  >>>> FITINT
 <Jan01-2013> <09:10:28>  >>>> CLSMAT
 <Jan01-2013> <09:10:32>  >>>> ORTHON
 <Jan01-2013> <09:10:32>  >>>> GENPT
 <Jan01-2013> <09:10:32>  Acc.Num.Int.=   6.000
 <Jan01-2013> <09:10:32>  Reusing previous cell geometry for gradient smoothing.
 <Jan01-2013> <09:10:32>  Block Length= 128
 <Jan01-2013> <09:10:33>  >>>> PTBAS
 <Jan01-2013> <09:11:36>  >>>> CYCLE
 <Jan01-2013> <09:11:39>    1
 <Jan01-2013> <09:11:47>    2  ErrMat   0.02321408  MaxEl -0.00647932
 <Jan01-2013> <09:12:00>    3  ErrMat   0.01024104  MaxEl -0.00286433
 <Jan01-2013> <09:12:08>    4  ErrMat   0.00609999  MaxEl -0.00114131
 <Jan01-2013> <09:12:16>    5  ErrMat   0.00201587  MaxEl  0.00025633
 <Jan01-2013> <09:12:23>    6  ErrMat   0.00048391  MaxEl -0.00006546
 <Jan01-2013> <09:12:32>    7  ErrMat   0.00024926  MaxEl  0.00003227
 <Jan01-2013> <09:12:39>    8  ErrMat   0.00005713  MaxEl -0.00000560
 <Jan01-2013> <09:12:47>    9  ErrMat   0.00002754  MaxEl -0.00000356
 <Jan01-2013> <09:12:55>   10  ErrMat   0.00000819  MaxEl  0.00000085
 <Jan01-2013> <09:12:59>  SCF converged
 <Jan01-2013> <09:13:03>   11  ErrMat   0.00000117  MaxEl -0.00000013
 <Jan01-2013> <09:13:10>  >>>> TOTEN
 <Jan01-2013> <09:13:19>  >>>> POPAN
 <Jan01-2013> <09:13:19>  >>>> DEBYE
 <Jan01-2013> <09:13:19>  >>>> AMETS
 <Jan01-2013> <09:13:19>  >>>> ENGRAD
  Coordinates in Frequency Displacement 90
    Atom         X           Y           Z   (Angstrom)
    1.Hg       -0.406051   -0.422620   -0.299946
    2.O         3.170054    0.892246   -0.513940
    3.H         3.703019    1.277537    0.207753
    4.H         3.704926    1.022469   -1.320328
    5.O        -1.682025   -0.822319    1.693132
    6.H        -2.195948   -0.093572    2.090770
    7.H        -1.246879   -1.272379    2.442490
    8.O         0.639416    1.475663   -0.412886
    9.H         1.653041    1.362980   -0.537956
   10.H         0.305444    2.139871   -1.045490
   11.O         1.670844   -1.478334    0.070955
   12.H         1.865050   -2.387874   -0.219427
   13.H         2.446167   -0.918409   -0.162217
   14.O        -1.794482   -2.019146   -0.978441
   15.H        -2.170883   -1.998730   -1.870356
   16.H        -2.534382   -2.169387   -0.356555
 <Jan01-2013> <09:14:54>  >>>> CORORT
 <Jan01-2013> <09:14:55>  >>>> FITINT
 <Jan01-2013> <09:14:56>  >>>> CLSMAT
 <Jan01-2013> <09:15:00>  >>>> ORTHON
 <Jan01-2013> <09:15:00>  >>>> GENPT
 <Jan01-2013> <09:15:00>  Acc.Num.Int.=   6.000
 <Jan01-2013> <09:15:00>  Reusing previous cell geometry for gradient smoothing.
 <Jan01-2013> <09:15:01>  Block Length= 128
 <Jan01-2013> <09:15:01>  >>>> PTBAS
 <Jan01-2013> <09:16:09>  >>>> CYCLE
 <Jan01-2013> <09:16:13>    1
 <Jan01-2013> <09:16:21>    2  ErrMat   0.00032264  MaxEl  0.00007956
 <Jan01-2013> <09:16:29>    3  ErrMat   0.00012314  MaxEl  0.00003159
 <Jan01-2013> <09:16:36>    4  ErrMat   0.00004866  MaxEl  0.00000602
 <Jan01-2013> <09:16:43>    5  ErrMat   0.00002444  MaxEl -0.00000322
 <Jan01-2013> <09:16:50>    6  ErrMat   0.00000631  MaxEl  0.00000079
 <Jan01-2013> <09:16:57>  SCF converged
 <Jan01-2013> <09:17:02>    7  ErrMat   0.00000207  MaxEl -0.00000022
 <Jan01-2013> <09:17:10>  >>>> TOTEN
 <Jan01-2013> <09:17:20>  >>>> POPAN
 <Jan01-2013> <09:17:20>  >>>> DEBYE
 <Jan01-2013> <09:17:20>  >>>> AMETS
 <Jan01-2013> <09:17:20>  >>>> ENGRAD
  Coordinates in Frequency Displacement 91
    Atom         X           Y           Z   (Angstrom)
    1.Hg       -0.406051   -0.422620   -0.299946
    2.O         3.170054    0.892246   -0.513940
    3.H         3.703019    1.277537    0.207753
    4.H         3.704926    1.022469   -1.320328
    5.O        -1.682025   -0.822319    1.693132
    6.H        -2.195948   -0.093572    2.090770
    7.H        -1.246879   -1.272379    2.442490
    8.O         0.639416    1.475663   -0.412886
    9.H         1.653041    1.362980   -0.537956
   10.H         0.305444    2.139871   -1.045490
   11.O         1.670844   -1.478334    0.070955
   12.H         1.865050   -2.387874   -0.219427
   13.H         2.446167   -0.918409   -0.162217
   14.O        -1.794482   -2.019146   -0.978441
   15.H        -2.170883   -1.998730   -1.880356
   16.H        -2.544382   -2.169387   -0.356555
 <Jan01-2013> <09:19:03>  >>>> CORORT
 <Jan01-2013> <09:19:03>  >>>> FITINT
 <Jan01-2013> <09:19:05>  >>>> CLSMAT
 <Jan01-2013> <09:19:09>  >>>> ORTHON
 <Jan01-2013> <09:19:09>  >>>> GENPT
 <Jan01-2013> <09:19:09>  Acc.Num.Int.=   6.000
 <Jan01-2013> <09:19:10>  Reusing previous cell geometry for gradient smoothing.
 <Jan01-2013> <09:19:10>  Block Length= 128
 <Jan01-2013> <09:19:10>  >>>> PTBAS
 <Jan01-2013> <09:20:11>  >>>> CYCLE
 <Jan01-2013> <09:20:14>    1
 <Jan01-2013> <09:20:21>    2  ErrMat   0.02182822  MaxEl  0.00473240
 <Jan01-2013> <09:20:28>    3  ErrMat   0.00970599  MaxEl  0.00217034
 <Jan01-2013> <09:20:34>    4  ErrMat   0.00580174  MaxEl  0.00085806
 <Jan01-2013> <09:20:41>    5  ErrMat   0.00197639  MaxEl  0.00024307
 <Jan01-2013> <09:20:48>    6  ErrMat   0.00048713  MaxEl -0.00005791
 <Jan01-2013> <09:20:54>    7  ErrMat   0.00024565  MaxEl  0.00003590
 <Jan01-2013> <09:21:01>    8  ErrMat   0.00006788  MaxEl -0.00000905
 <Jan01-2013> <09:21:09>    9  ErrMat   0.00002623  MaxEl -0.00000348
 <Jan01-2013> <09:21:17>   10  ErrMat   0.00000733  MaxEl  0.00000097
 <Jan01-2013> <09:21:21>  SCF converged
 <Jan01-2013> <09:21:25>   11  ErrMat   0.00000145  MaxEl  0.00000013
 <Jan01-2013> <09:21:33>  >>>> TOTEN
 <Jan01-2013> <09:21:44>  >>>> POPAN
 <Jan01-2013> <09:21:44>  >>>> DEBYE
 <Jan01-2013> <09:21:44>  >>>> AMETS
 <Jan01-2013> <09:21:45>  >>>> ENGRAD
  Coordinates in Frequency Displacement 92
    Atom         X           Y           Z   (Angstrom)
    1.Hg       -0.406051   -0.422620   -0.299946
    2.O         3.170054    0.892246   -0.513940
    3.H         3.703019    1.277537    0.207753
    4.H         3.704926    1.022469   -1.320328
    5.O        -1.682025   -0.822319    1.693132
    6.H        -2.195948   -0.093572    2.090770
    7.H        -1.246879   -1.272379    2.442490
    8.O         0.639416    1.475663   -0.412886
    9.H         1.653041    1.362980   -0.537956
   10.H         0.305444    2.139871   -1.045490
   11.O         1.670844   -1.478334    0.070955
   12.H         1.865050   -2.387874   -0.219427
   13.H         2.446167   -0.918409   -0.162217
   14.O        -1.794482   -2.019146   -0.978441
   15.H        -2.170883   -1.998730   -1.880356
   16.H        -2.524382   -2.169387   -0.356555
 <Jan01-2013> <09:23:40>  >>>> CORORT
 <Jan01-2013> <09:23:40>  >>>> FITINT
 <Jan01-2013> <09:23:42>  >>>> CLSMAT
 <Jan01-2013> <09:23:46>  >>>> ORTHON
 <Jan01-2013> <09:23:46>  >>>> GENPT
 <Jan01-2013> <09:23:46>  Acc.Num.Int.=   6.000
 <Jan01-2013> <09:23:46>  Reusing previous cell geometry for gradient smoothing.
 <Jan01-2013> <09:23:47>  Block Length= 128
 <Jan01-2013> <09:23:47>  >>>> PTBAS
 <Jan01-2013> <09:25:03>  >>>> CYCLE
 <Jan01-2013> <09:25:07>    1
 <Jan01-2013> <09:25:16>    2  ErrMat   0.00022536  MaxEl -0.00004591
 <Jan01-2013> <09:25:24>    3  ErrMat   0.00008934  MaxEl -0.00001926
 <Jan01-2013> <09:25:32>    4  ErrMat   0.00003575  MaxEl  0.00000492
 <Jan01-2013> <09:25:40>    5  ErrMat   0.00001977  MaxEl -0.00000244
 <Jan01-2013> <09:25:48>    6  ErrMat   0.00000429  MaxEl  0.00000053
 <Jan01-2013> <09:25:52>  SCF converged
 <Jan01-2013> <09:25:56>    7  ErrMat   0.00000147  MaxEl -0.00000017
 <Jan01-2013> <09:26:04>  >>>> TOTEN
 <Jan01-2013> <09:26:12>  >>>> POPAN
 <Jan01-2013> <09:26:12>  >>>> DEBYE
 <Jan01-2013> <09:26:12>  >>>> AMETS
 <Jan01-2013> <09:26:12>  >>>> ENGRAD
  Coordinates in Frequency Displacement 93
    Atom         X           Y           Z   (Angstrom)
    1.Hg       -0.406051   -0.422620   -0.299946
    2.O         3.170054    0.892246   -0.513940
    3.H         3.703019    1.277537    0.207753
    4.H         3.704926    1.022469   -1.320328
    5.O        -1.682025   -0.822319    1.693132
    6.H        -2.195948   -0.093572    2.090770
    7.H        -1.246879   -1.272379    2.442490
    8.O         0.639416    1.475663   -0.412886
    9.H         1.653041    1.362980   -0.537956
   10.H         0.305444    2.139871   -1.045490
   11.O         1.670844   -1.478334    0.070955
   12.H         1.865050   -2.387874   -0.219427
   13.H         2.446167   -0.918409   -0.162217
   14.O        -1.794482   -2.019146   -0.978441
   15.H        -2.170883   -1.998730   -1.880356
   16.H        -2.534382   -2.179387   -0.356555
 <Jan01-2013> <09:29:57>  >>>> CORORT
 <Jan01-2013> <09:29:57>  >>>> FITINT
 <Jan01-2013> <09:30:00>  >>>> CLSMAT
 <Jan01-2013> <09:30:04>  >>>> ORTHON
 <Jan01-2013> <09:30:04>  >>>> GENPT
 <Jan01-2013> <09:30:04>  Acc.Num.Int.=   6.000
 <Jan01-2013> <09:30:04>  Reusing previous cell geometry for gradient smoothing.
 <Jan01-2013> <09:30:05>  Block Length= 128
 <Jan01-2013> <09:30:05>  >>>> PTBAS
 <Jan01-2013> <09:31:29>  >>>> CYCLE
 <Jan01-2013> <09:31:34>    1
 <Jan01-2013> <09:31:46>    2  ErrMat   0.01388705  MaxEl  0.00332583
 <Jan01-2013> <09:31:58>    3  ErrMat   0.00871177  MaxEl  0.00219097
 <Jan01-2013> <09:32:15>    4  ErrMat   0.00638930  MaxEl -0.00092551
 <Jan01-2013> <09:32:29>    5  ErrMat   0.00137338  MaxEl  0.00017785
 <Jan01-2013> <09:32:42>    6  ErrMat   0.00043404  MaxEl -0.00005263
 <Jan01-2013> <09:32:55>    7  ErrMat   0.00013395  MaxEl  0.00001503
 <Jan01-2013> <09:33:07>    8  ErrMat   0.00007489  MaxEl  0.00001306
 <Jan01-2013> <09:33:20>    9  ErrMat   0.00001020  MaxEl  0.00000141
 <Jan01-2013> <09:33:33>   10  ErrMat   0.00000569  MaxEl -0.00000075
 <Jan01-2013> <09:33:40>  SCF converged
 <Jan01-2013> <09:33:46>   11  ErrMat   0.00000179  MaxEl -0.00000020
 <Jan01-2013> <09:33:57>  >>>> TOTEN
 <Jan01-2013> <09:34:12>  >>>> POPAN
 <Jan01-2013> <09:34:12>  >>>> DEBYE
 <Jan01-2013> <09:34:12>  >>>> AMETS
 <Jan01-2013> <09:34:12>  >>>> ENGRAD
  Coordinates in Frequency Displacement 94
    Atom         X           Y           Z   (Angstrom)
    1.Hg       -0.406051   -0.422620   -0.299946
    2.O         3.170054    0.892246   -0.513940
    3.H         3.703019    1.277537    0.207753
    4.H         3.704926    1.022469   -1.320328
    5.O        -1.682025   -0.822319    1.693132
    6.H        -2.195948   -0.093572    2.090770
    7.H        -1.246879   -1.272379    2.442490
    8.O         0.639416    1.475663   -0.412886
    9.H         1.653041    1.362980   -0.537956
   10.H         0.305444    2.139871   -1.045490
   11.O         1.670844   -1.478334    0.070955
   12.H         1.865050   -2.387874   -0.219427
   13.H         2.446167   -0.918409   -0.162217
   14.O        -1.794482   -2.019146   -0.978441
   15.H        -2.170883   -1.998730   -1.880356
   16.H        -2.534382   -2.159387   -0.356555
 <Jan01-2013> <09:38:21>  >>>> CORORT
 <Jan01-2013> <09:38:22>  >>>> FITINT
 <Jan01-2013> <09:38:25>  >>>> CLSMAT
 <Jan01-2013> <09:38:28>  >>>> ORTHON
 <Jan01-2013> <09:38:29>  >>>> GENPT
 <Jan01-2013> <09:38:29>  Acc.Num.Int.=   6.000
 <Jan01-2013> <09:38:29>  Reusing previous cell geometry for gradient smoothing.
 <Jan01-2013> <09:38:29>  Block Length= 128
 <Jan01-2013> <09:38:29>  >>>> PTBAS
 <Jan01-2013> <09:40:02>  >>>> CYCLE
 <Jan01-2013> <09:40:06>    1
 <Jan01-2013> <09:40:20>    2  ErrMat   0.00003327  MaxEl -0.00000636
 <Jan01-2013> <09:40:34>    3  ErrMat   0.00002173  MaxEl -0.00000433
 <Jan01-2013> <09:40:49>    4  ErrMat   0.00001747  MaxEl -0.00000378
 <Jan01-2013> <09:41:02>    5  ErrMat   0.00000297  MaxEl  0.00000042
 <Jan01-2013> <09:41:09>  SCF converged
 <Jan01-2013> <09:41:16>    6  ErrMat   0.00000122  MaxEl -0.00000014
 <Jan01-2013> <09:41:27>  >>>> TOTEN
 <Jan01-2013> <09:41:42>  >>>> POPAN
 <Jan01-2013> <09:41:42>  >>>> DEBYE
 <Jan01-2013> <09:41:42>  >>>> AMETS
 <Jan01-2013> <09:41:42>  >>>> ENGRAD
  Coordinates in Frequency Displacement 95
    Atom         X           Y           Z   (Angstrom)
    1.Hg       -0.406051   -0.422620   -0.299946
    2.O         3.170054    0.892246   -0.513940
    3.H         3.703019    1.277537    0.207753
    4.H         3.704926    1.022469   -1.320328
    5.O        -1.682025   -0.822319    1.693132
    6.H        -2.195948   -0.093572    2.090770
    7.H        -1.246879   -1.272379    2.442490
    8.O         0.639416    1.475663   -0.412886
    9.H         1.653041    1.362980   -0.537956
   10.H         0.305444    2.139871   -1.045490
   11.O         1.670844   -1.478334    0.070955
   12.H         1.865050   -2.387874   -0.219427
   13.H         2.446167   -0.918409   -0.162217
   14.O        -1.794482   -2.019146   -0.978441
   15.H        -2.170883   -1.998730   -1.880356
   16.H        -2.534382   -2.169387   -0.366555
 <Jan01-2013> <09:47:26>  >>>> CORORT
 <Jan01-2013> <09:47:26>  >>>> FITINT
 <Jan01-2013> <09:47:29>  >>>> CLSMAT
 <Jan01-2013> <09:47:33>  >>>> ORTHON
 <Jan01-2013> <09:47:33>  >>>> GENPT
 <Jan01-2013> <09:47:33>  Acc.Num.Int.=   6.000
 <Jan01-2013> <09:47:33>  Reusing previous cell geometry for gradient smoothing.
 <Jan01-2013> <09:47:34>  Block Length= 128
 <Jan01-2013> <09:47:34>  >>>> PTBAS
 <Jan01-2013> <09:49:31>  >>>> CYCLE
 <Jan01-2013> <09:49:36>    1
 <Jan01-2013> <09:49:50>    2  ErrMat   0.01863406  MaxEl  0.00406517
 <Jan01-2013> <09:50:03>    3  ErrMat   0.00944043  MaxEl  0.00198223
 <Jan01-2013> <09:50:18>    4  ErrMat   0.00718503  MaxEl  0.00163037
 <Jan01-2013> <09:50:32>    5  ErrMat   0.00125607  MaxEl  0.00018060
 <Jan01-2013> <09:50:46>    6  ErrMat   0.00042090  MaxEl  0.00005011
 <Jan01-2013> <09:51:00>    7  ErrMat   0.00016803  MaxEl -0.00002320
 <Jan01-2013> <09:51:14>    8  ErrMat   0.00004792  MaxEl  0.00000773
 <Jan01-2013> <09:51:28>    9  ErrMat   0.00001499  MaxEl -0.00000217
 <Jan01-2013> <09:51:42>   10  ErrMat   0.00000707  MaxEl  0.00000125
 <Jan01-2013> <09:51:55>   11  ErrMat   0.00000124  MaxEl -0.00000021
 <Jan01-2013> <09:52:02>  SCF converged
 <Jan01-2013> <09:52:08>   12  ErrMat   0.00000067  MaxEl  0.00000009
 <Jan01-2013> <09:52:18>  >>>> TOTEN
 <Jan01-2013> <09:52:33>  >>>> POPAN
 <Jan01-2013> <09:52:33>  >>>> DEBYE
 <Jan01-2013> <09:52:33>  >>>> AMETS
 <Jan01-2013> <09:52:34>  >>>> ENGRAD
  Coordinates in Frequency Displacement 96
    Atom         X           Y           Z   (Angstrom)
    1.Hg       -0.406051   -0.422620   -0.299946
    2.O         3.170054    0.892246   -0.513940
    3.H         3.703019    1.277537    0.207753
    4.H         3.704926    1.022469   -1.320328
    5.O        -1.682025   -0.822319    1.693132
    6.H        -2.195948   -0.093572    2.090770
    7.H        -1.246879   -1.272379    2.442490
    8.O         0.639416    1.475663   -0.412886
    9.H         1.653041    1.362980   -0.537956
   10.H         0.305444    2.139871   -1.045490
   11.O         1.670844   -1.478334    0.070955
   12.H         1.865050   -2.387874   -0.219427
   13.H         2.446167   -0.918409   -0.162217
   14.O        -1.794482   -2.019146   -0.978441
   15.H        -2.170883   -1.998730   -1.880356
   16.H        -2.534382   -2.169387   -0.346555
 <Jan01-2013> <09:54:43>  >>>> CORORT
 <Jan01-2013> <09:54:43>  >>>> FITINT
 <Jan01-2013> <09:54:46>  >>>> CLSMAT
 <Jan01-2013> <09:54:49>  >>>> ORTHON
 <Jan01-2013> <09:54:49>  >>>> GENPT
 <Jan01-2013> <09:54:49>  Acc.Num.Int.=   6.000
 <Jan01-2013> <09:54:49>  Reusing previous cell geometry for gradient smoothing.
 <Jan01-2013> <09:54:49>  Block Length= 128
 <Jan01-2013> <09:54:50>  >>>> PTBAS
 <Jan01-2013> <09:55:58>  >>>> CYCLE
 <Jan01-2013> <09:56:02>    1
 <Jan01-2013> <09:56:12>    2  ErrMat   0.00014496  MaxEl -0.00002895
 <Jan01-2013> <09:56:20>    3  ErrMat   0.00006564  MaxEl -0.00001097
 <Jan01-2013> <09:56:28>    4  ErrMat   0.00003737  MaxEl  0.00000667
 <Jan01-2013> <09:56:36>    5  ErrMat   0.00001586  MaxEl -0.00000198
 <Jan01-2013> <09:56:43>    6  ErrMat   0.00000413  MaxEl  0.00000062
 <Jan01-2013> <09:56:47>  SCF converged
 <Jan01-2013> <09:56:52>    7  ErrMat   0.00000177  MaxEl -0.00000021
 <Jan01-2013> <09:56:59>  >>>> TOTEN
 <Jan01-2013> <09:57:08>  >>>> POPAN
 <Jan01-2013> <09:57:08>  >>>> DEBYE
 <Jan01-2013> <09:57:09>  >>>> AMETS
 <Jan01-2013> <09:57:09>  >>>> ENGRAD
 <Jan01-2013> <09:59:05>  Force Constants computed
 <Jan01-2013> <09:59:05>  NORMAL TERMINATION
 <Jan01-2013> <09:59:05>  END
 <Jan01-2013> <09:59:05>  Total Bonding Energy:        -42.68941629 a.u. 
