
 *******************************************************************************
 *                                                                             *
 *  -------------------------------------                                      *
 *   Amsterdam Density Functional  (ADF)         2013.01   April 2, 2013       *
 *  -------------------------------------                                      *
 *                                               Build 201304112106            *
 *                                                                             *
 *                                                                             *
 *                            =====================                            *
 *                            |                   |                            *
 *                            |     D I R A C     |                            *
 *                            |                   |                            *
 *                            =====================                            *
 *                                                                             *
 *                                                                             *
 *   Online information and documentation:  http://www.scm.com                 *
 *   E-mail:  support@scm.com   info@scm.com                                   *
 *                                                                             *
 *   Scientific publications using ADF results must be properly referenced     *
 *   See the User Manuals (or the web site) for recommended citations          *
 *   The terms and conditions of the End User License Agreement apply to       *
 *   the use of ADF, http://www.scm.com/Sales/LicAgreement.html                *
 *                                                                             *
 ****************************  x86_64_linux_intel  *****************************
 
 Licensed to: Prof. Cacier Hadad / University of Antioquia / Medellin / COLOMBIA
 SCM User ID: u15319
  
 DIRAC 2013.01  RunTime: Jan01-2013 00:00:00  Nodes: 1  Procs: 1

 Temporary files are created in /tmp/kid_0.32MPOQ

1
 HYDROGEN ATOM RELATIVISTIC, Point Nuc, A and c from libtc   
 N J RN H ZN XION ANUC CLIGHT
 5000    1100.00000000197.36710137  1.00000000  0.00000000    1.007825  0.1370360E+03
  PH   PHI     EPS        DEL        DELRVR
  0.30  0.30     2500.00  0.00001000  0.00001000
 IDIRC  NC1  NDEBU NPRIN  IPUN IRCOR IWCOR
   1   300     0     0     0     0     0
   XALPHA      XLATTER      RNUC
  0.70000000  0.00000000  0.00000000 Point Charge
   XN   XL   XJ      XE          XZ      XDELL
  1.0  0.0  0.5      -1.000       1.000     0.00000
 ICORP=  0  NPCL=  0  DEMP=0.00  PEPS=0.000000
 R(1)=  0.1000000E-08 D=  0.1005080E+01 RNUC=  0.0000000E+00
 converged at cycle   32  DENSITY AVERAGING    0.2400
  MAXIMUM ERROR IN R.V(R) IS   0.79874357E-05
 Q,EY,EV,EZ,ESUM,ETOT,RHO  0.100000E+01 -0.266614E+00 -0.619969E+00 -0.910779E+00 -0.203940E+00 -0.415998E+00  0.337036E-17


 DIRAC CALCULATION
1                    HYDROGEN ATOM RELATIVISTIC, Point Nuc, A and c from libtc


 EXCHANGE COEFFICIENT=  0.7000000           TAIL CORRECTION=  0.           NUCLEAR RADIUS=  0.000E+00
0                       ORBITAL    N    L    J     ELECTRONS     EIGENVALUE                DELTA OF EIGENV.

                          1S1/2  1.0  0.0  0.5     1.000       -0.2039397E+00                 0.2720093E-06


                                        NUCLEAR CHARGE=    1.000000
                            INTEGRAL OF CHARGE DENSITY=    1.000000
                           SUM OF THE ORBITAL ENERGIES=     -0.2039
                                          TOTAL ENERGY=     -0.4160
                                        KINETIC ENERGY=      0.4160
                             NUCLEAR ATTRACTION ENERGY=     -0.9108
                             ELECTRON REPULSION ENERGY=      0.2787
                                       EXCHANGE ENERGY=     -0.2000

 *******************************************************************************

                             D I R A C   E X I T
 NORMAL TERMINATION



 =================
 Timing Statistics
 =================
  
 Total Used :                     CPU=        0.12      System=        0.04     Elapsed=        0.30

 Calls  Section                     ( Mean, Percentage )
 ---------------------------------------------------------------------------------------------------
     2  ><      ................      0.00    0.01             0.00    0.03             0.00    0.01
     1  EXIT PROCEDURE .........      0.12   99.99             0.04   99.97             0.30   99.99


 Currently Open Files (EXIT00)
 ====================

 Unit    Access Format  Status   Type       Ident (file)
 -------------------------------------------------------
   3      SEQ    FORM   TRANSP  NORMAL      LOGFILE
                                          ( logfile )


 Buffered I/O statistics
 =======================
 Memory available:                     67108864
 Number of records fitting in memory:     16131
 Input : 100.0% of                            0  *4k bytes
 Output: 100.0% of                            0  *4k bytes
 Records from serial files evicted:           0
                    others evicted:           0
 Hash table lookups:          0 with          0 conflicts (100.00%)
(INPUT FILE)
Create H   file=/home/andyzapa/adf2013.01/atomicdata/ZORA/QZ4P/H
XC
GGA PBE
End
relativistic ZORA
Corepotentials t12.rel
End Input

 *******************************************************************************
 *                                                                             *
 *  -------------------------------------                                      *
 *   Amsterdam Density Functional  (ADF)         2013.01   April 2, 2013       *
 *  -------------------------------------                                      *
 *                                               Build 201304112215            *
 *                                                                             *
 *                                                                             *
 *                              =================                              *
 *                              |               |                              *
 *                              |     A D F     |                              *
 *                              |               |                              *
 *                              =================                              *
 *                                                                             *
 *                                                                             *
 *   Online information and documentation:  http://www.scm.com                 *
 *   E-mail:  support@scm.com   info@scm.com                                   *
 *                                                                             *
 *   Scientific publications using ADF results must be properly referenced     *
 *   See the User Manuals (or the web site) for recommended citations          *
 *   The terms and conditions of the End User License Agreement apply to       *
 *   the use of ADF, http://www.scm.com/Sales/LicAgreement.html                *
 *                                                                             *
 ********************  x86_64_linux_intel / platform_mpi  **********************
 
 Licensed to: Prof. Cacier Hadad / University of Antioquia / Medellin / COLOMBIA
 SCM User ID: u15319
  
 ADF 2013.01  RunTime: Jan01-2013 00:00:00  Nodes: 1  Procs: 1

 Temporary files are created in /tmp/kid_0.Ix6Pjk

 Hydrogen (QZ, all electron, 5S 2P 2D)



 ===========================
 A T T A C H E D   F I L E S
 ===========================
  
 CREATE - Data File:    /home/andyzapa/adf2013.01/atomicdata/ZORA/QZ4P/H
                        Hydrogen (QZ, all electron, 5S 2P 2D)
 Core Potentials:
         file : t12.rel



 ===============================
 M O D E L   P A R A M E T E R S
 ===============================
  
 DENSITY FUNCTIONAL POTENTIAL (scf)
    LDA:                               PW92                                    == Not Default ==
    Gradient Corrections:              PBEc PBEx                               == Not Default ==

 SPIN  (restricted / unrestr.)
    Molecule:                          Restricted                               

 OTHER ASPECTS
    Relativistic Corrections:          scalar (ZORA,SAPA)                      == Not Default ==

    Nuclear Charge Density Model:      Point Charge Nuclei                                                                                                                                                                                     
    Core Treatment:                    Frozen Orbital(s)                        

    Hyperfine or Zeeman Interaction:   ---                                      



 =====================================
 S Y M M E T R Y ,   E L E C T R O N S
 =====================================
  
 Symmetry: ATOM

 Irreducible Representations, including subspecies
 -------------------------------------------------
 S
 P:x  P:y  P:z
 D:z2  D:x2-y2  D:xy  D:xz  D:yz
 F:z3  F:z  F:xyz  F:z2x  F:z2y  F:x  F:y


 Configuration of Valence Electrons
 ==================================

          Occupation Numbers
          -------------------------------------------------
 S        1
 P        0
 D        0
 F        0
          -------------------------------------------------

 Total:   1

 Net Charge: 0 (Nuclei minus Electrons)

 Preset values for MO occupations will be applied through SCF cycle no. 1000000
 Thereafter, the program will assign electrons to MOs that are spatially
 similar to the occupied MOs in a "reference" cycle ("KeepOrbitals").
 The reference cycle is always the PREVIOUS cycle: it will evolve with
 the SCF procedure.



 ================================
 (Slater-type)  F U N C T I O N S  ***  (Basis and Fit)  ***
 ================================
  

 Atom Type    1  (H)
 ==============

 Valence Basis Sets:   9
 -----------------------
   1 S    3.300000
   1 S    2.000000
   1 S    1.400000
   1 S    1.000000
   1 S    0.710000
   2 P    2.000000
   2 P    1.000000
   3 D    2.500000
   3 D    1.500000

 Charge Fitting Sets (for the computation of the Coulomb Potential):  22
 -----------------------------------------------------------------------
   1 S    6.600000
   1 S    4.620000
   1 S    3.230000
   1 S    2.260000
   1 S    1.580000
   1 S    1.100000
   1 S    0.770000
   2 S    1.000000
   2 P    5.300000
   2 P    3.870000
   2 P    2.820000
   2 P    2.060000
   2 P    1.500000
   3 D    5.800000
   3 D    4.070000
   3 D    2.850000
   3 D    2.000000
   4 F    4.500000
   4 F    3.350000
   4 F    2.500000
   5 G    5.000000
   5 G    3.000000


 BAS: List of all Elementary Cartesian Basis Functions
 =====================================================

 The numbering in the list below (to the right of the function characteristics) is referred
 to in print-outs of MO eigenvectors and Mulliken populations in the BAS representation
 (as contrasted to the SFO representation).

 Notes:
 1. The functions are characterized by a polynomial prefactor (powers of x,y,z and r) and
    an exponential decay factor alpha.
 2. Since the basis sets are specific for an atom TYPE, the individual functions occur on
    all atoms of that type.
 3. The word 'Core' in the left margin signals that it is a Core Function (CF) : not a
    degree of freedom in the valence set, but only used to ensure orthogonalization of
    the other valence basis functions on the frozen Core Orbitals.


 (power of) X  Y  Z  R     Alpha  on Atom
            ==========     =====     ==========

 H                                    1
                                  ---------------------------------------------------------------------------
            0  0  0  0     3.300      1
            0  0  0  0     2.000      2
            0  0  0  0     1.400      3
            0  0  0  0     1.000      4
            0  0  0  0     0.710      5
            1  0  0  0     2.000      6
            0  1  0  0     2.000      7
            0  0  1  0     2.000      8
            1  0  0  0     1.000      9
            0  1  0  0     1.000     10
            0  0  1  0     1.000     11
            2  0  0  0     2.500     12
            1  1  0  0     2.500     13
            1  0  1  0     2.500     14
            0  2  0  0     2.500     15
            0  1  1  0     2.500     16
            0  0  2  0     2.500     17
            2  0  0  0     1.500     18
            1  1  0  0     1.500     19
            1  0  1  0     1.500     20
            0  2  0  0     1.500     21
            0  1  1  0     1.500     22
            0  0  2  0     1.500     23

 Total number of charge fitting functions (nprimf)       107
 Total number of Cartesian basis functions (naos)         23
 Total number of Cartesian core functions  (ncos)          0



 BAS: List of all Elementary Cartesian Basis Functions
 =====================================================

 The numbering in the list below (to the right of the function characteristics) is referred
 to in print-outs of MO eigenvectors and Mulliken populations in the BAS representation
 (as contrasted to the SFO representation).

 Notes:
 1. The functions are characterized by a polynomial prefactor (powers of x,y,z and r) and
    an exponential decay factor alpha.
 2. Since the basis sets are specific for an atom TYPE, the individual functions occur on
    all atoms of that type.
 3. The word 'Core' in the left margin signals that it is a Core Function (CF) : not a
    degree of freedom in the valence set, but only used to ensure orthogonalization of
    the other valence basis functions on the frozen Core Orbitals.


 (power of) X  Y  Z  R     Alpha  on Atom
            ==========     =====     ==========

 H                                    1
                                  ---------------------------------------------------------------------------
            0  0  0  0     3.300      1
            0  0  0  0     2.000      2
            0  0  0  0     1.400      3
            0  0  0  0     1.000      4
            0  0  0  0     0.710      5
            1  0  0  0     2.000      6
            0  1  0  0     2.000      7
            0  0  1  0     2.000      8
            1  0  0  0     1.000      9
            0  1  0  0     1.000     10
            0  0  1  0     1.000     11
            2  0  0  0     2.500     12
            1  1  0  0     2.500     13
            1  0  1  0     2.500     14
            0  2  0  0     2.500     15
            0  1  1  0     2.500     16
            0  0  2  0     2.500     17
            2  0  0  0     1.500     18
            1  1  0  0     1.500     19
            1  0  1  0     1.500     20
            0  2  0  0     1.500     21
            0  1  1  0     1.500     22
            0  0  2  0     1.500     23
1
 ***************************************************************************************************



                                              ***********************
                                              *  T E C H N I C A L  *
                                              ***********************
  



 =============================================================
 P A R A L L E L I Z A T I O N  and  V E C T O R I Z A T I O N
 =============================================================
  
 Nr of parallel processes:                                1
 Maximum vector length in NumInt loops:                 128



 ===============
 I O  vs.  C P U  ***  (store numerical data on disk or recalculate)  ***
 ===============
  
 Basis functions:   recalculate when needed
 Fit functions:     recalculate when needed

 IO buffersize (Mb):                                     64.000000



 =====================
 S C F   U P D A T E S
 =====================
  
 Max. nr. of cycles:                               100
 Convergence criterion:                              0.0000000100
   secondary criterion:                              0.0000000100

 Mix parameter (when DIIS does not apply):           0.2000000000
 Special mix parameter for the first cycle:          1.0000000000


 DIIS (Direct Inversion in Iteration Space)
    Replace damping when SCF Error is below:         0.5000000000
    Apply anyway after SCF cycle:
                                                     5
    (Max.) nr. of expansion vectors:                10

    Upperbound on expansion coefficients:            5.0000000000
    (when exceeded, IterationSpace is re-built)
    2nd Upperbound on coefficients:                 25.0000000000
    (when exceeded, simple damping will be used)
 Automatic ElectronSmearing (in case of problematic SCF convergence) disabled



 =================
 P R E C I S I O N  ***  (General: NumInt, NeglectFunctionTails, ...)  ***
 =================
  

 NumInt:           Target precision:                10.0000000000
 -------           Initial precision:               10.0000000000
                   Min. precision (optimization):   10.0000000000

 Neglect Functions:          Basis functions:        0.1000000000E-11
 ------------------          Fit functions:          0.1000000000E-11



 ===========================
 L I N E A R   S C A L I N G
 ===========================
  

 Cut-off radii density fit:                        0.1000000000E-13
 Overlap cut-off criterion AO matrix elements:     0.1000000000E-11
 Cut-offs for Coulomb potential and fitted density:0.1000000000E-13
 Cut-off criterion for Coulomb multipole terms:    0.1000000000E-13
 Progressive Convergence parameter:                 0.000000000    
1
 ***************************************************************************************************



                                            ***************************
                                            *  C O M P U T A T I O N  *
                                            ***************************
  

 Number of elements of the density matrix on this node (used, total):       276       276



 ====================================================
 Numerical Integration : Voronoi Polyhedra (Te Velde)
 ====================================================
  
 General Accuracy Parameter :                         10.00

 Symmetry used in the points section:  ATOM  


 Summary of the Symmetry Unique Points:
 --------------------------------------
    Nr. of used Symmetry Operators                     1

    Points in the Atomic Spheres                      44
    Points in the Atomic Polyhedra                     0
    Points in the Outer Region                         0
    ----------------------------------------------------
    Total                                             44

    Sum of Weights                                 33854.777883

 Total nr. of points:         44
 Nr. of blocks:                1
 Block length:                44
 Nr. of dummy points:          0


 Test of Precision of the Numerical Integration Grid
 ===================================================

 Integral of the Total Core Density:                   0.00000000000000



 =====
 S C F
 =====
  

 CYCLE    1
 orbitals (Q,E):
 ---------------
 S :1...5            ( 1.00    -0.5000)  ( 0.00    -0.1102)  ( 0.00     0.2912)  ( 0.00     2.1458)
                     ( 0.00    15.1140)
 P :1...2            ( 0.00    -0.0467)  ( 0.00     1.6698)
 D :1...2            ( 0.00     0.4090)  ( 0.00     3.3827)

 CYCLE    2
 d-Pmat  mean:  0.40E-01
 imax=      4: -0.73E+00
 orbitals (Q,E):
 ---------------
 S :1...2            ( 1.00    -0.2213)  ( 0.00     0.0617)
 P :1...1            ( 0.00     0.1820)
 D :1...1            ( 0.00     0.6395)

 CYCLE    3
 d-Pmat  mean:  0.48E-02
 imax=      4:  0.66E-01
 orbitals (Q,E):
 ---------------
 S :1...2            ( 1.00    -0.2392)  ( 0.00     0.0523)
 P :1...1            ( 0.00     0.1713)
 D :1...1            ( 0.00     0.6290)

 CYCLE    4
 d-Pmat  mean:  0.47E-03
 imax=      4: -0.74E-02
 orbitals (Q,E):
 ---------------
 S :1...2            ( 1.00    -0.2386)  ( 0.00     0.0522)
 P :1...1            ( 0.00     0.1716)
 D :1...1            ( 0.00     0.6293)

 CYCLE    5
 d-Pmat  mean:  0.13E-04
 imax=      4:  0.20E-03
 orbitals (Q,E):
 ---------------
 S :1...2            ( 1.00    -0.2386)  ( 0.00     0.0522)
 P :1...1            ( 0.00     0.1716)
 D :1...1            ( 0.00     0.6293)

 CYCLE    6
 d-Pmat  mean:  0.14E-06
 imax=      4:  0.26E-05
 orbitals (Q,E):
 ---------------
 S :1...2            ( 1.00    -0.2386)  ( 0.00     0.0522)
 P :1...1            ( 0.00     0.1716)
 D :1...1            ( 0.00     0.6293)

 CYCLE    7
 d-Pmat  mean:  0.24E-08
 imax=      4:  0.39E-07
 orbitals (Q,E):
 ---------------
 S :1...2            ( 1.00    -0.2386)  ( 0.00     0.0522)
 P :1...1            ( 0.00     0.1716)
 D :1...1            ( 0.00     0.6293)

 SCF CONVERGED

 CYCLE    8
1
 ***************************************************************************************************



                                                *******************
                                                *  R E S U L T S  *
                                                *******************
  
 *** Setting up for NEW gradients in focky
 *** Using FIT density in focky

 Scaled ZORA Orbital Energies, per Irrep and Spin:
 =================================================
                        Occup              E (au)              E (eV)       Diff (eV) with prev. cycle
                        -----      --------------------        ------       --------------------------
 S
               1        1.000     -0.23860414448779E+00        -6.493              -2.14E-10
               2        0.000      0.52240780773202E-01         1.422
               3        0.000      0.50128711414796E+00        13.641
               4        0.000      0.23892611828176E+01        65.015
               5        0.000      0.15295018626305E+02       416.199
 P
               1        0.000      0.17156247999750E+00         4.668
               2        0.000      0.19364620405874E+01        52.694
 D
               1        0.000      0.62928666110105E+00        17.124
               2        0.000      0.36544214463356E+01        99.442


 Partially Occupied:
               1 S                -0.23860414448779E+00
  
 LUMO :        2 S                 0.52240780773202E-01
  


 Orbital Energies, all Irreps
 ========================================

 Irrep        no.  (spin)   Occup              E (au)                E (eV)
 ---------------------------------------------------------------------------
 S             1             1.00       -0.23860414448779E+00        -6.4927
 S             2             0.00        0.52240780773202E-01         1.4215
 P             1             0.00        0.17156247999750E+00         4.6685
 S             3             0.00        0.50128711414796E+00        13.6407
 D             1             0.00        0.62928666110105E+00        17.1238
 P             2             0.00        0.19364620405874E+01        52.6938
 S             4             0.00        0.23892611828176E+01        65.0151
 D             2             0.00        0.36544214463356E+01        99.4419
 S             5             0.00        0.15295018626305E+02       416.1986


 All Electron Calculation, thus no Orbital Energies of the Core Orbitals are calculated



 =======================================
 M U L L I K E N   P O P U L A T I O N S
 =======================================
  
 The survey below gives for each atom:
 a) the total charge (Z minus electrons)
 b) the net spin polarization (nr of electrons spin-A minus spin-B)
 c) for each spin the atomic electron valence density (integrated) per L-value.

 Atom              Charge    Spin density          S         P         D         F
 ----              ------    ------------       ------    ------    ------    ------
 1 H               0.0000                       1.0000    0.0000    0.0000    0.0000

 Populations of individual BAS functions
 ----------------------------------------
 1 H           -0.0037  0.0405  0.0399  0.5670  0.3563  0.0000  0.0000  0.0000  0.0000  0.0000
                0.0000  0.0000  0.0000  0.0000  0.0000  0.0000  0.0000  0.0000  0.0000  0.0000
                0.0000  0.0000  0.0000

 Gross Charges per Atom (Z minus electrons)
 ==========================================
             0.0000
 Net Total:  0.00000000


 Atom-Atom Population Matrix (off-diagonal elements not doubled)
 ===============================================================

     1 :     1.0000



 =============
 Dipole Moment  ***  (Debye)  ***
 =============
  
 Vector   :         0.00000000      0.00000000      0.00000000
 Magnitude:         0.00000000

 This molecular dipole moment is calculated with analytic integration



 =========================================
 Quadrupole Moment (Buckingham convention)  ***  (a.u.)  ***
 =========================================
  
      quad-xx        quad-xy        quad-xz        quad-yy        quad-yz        quad-zz
      0.00000000     0.00000000     0.00000000     0.00000000     0.00000000     0.00000000

 This molecular quadrupole moment is calculated with analytic integration



 ===============================================================================
 Electrostatic potential at the Nuclei due to valence electrons and other nuclei
 ===============================================================================
  
         Atom                  Potential
         ----                  ---------
     1)   H                   0.94463948
 
 
 ========================
 No memory problems found
 ========================
 
 Maximum number of active allocate calls:         378
 
 *******************************************************************************

                             A D F   E X I T
 NORMAL TERMINATION



 =================
 Timing Statistics
 =================
  
 Total Used :                     CPU=        0.31      System=        0.09     Elapsed=        1.25

 Calls  Section                     ( Mean, Percentage )
 ---------------------------------------------------------------------------------------------------
     3  ><      ................      0.00    0.99             0.00    0.02             0.01    1.29
     1  INIT    ................      0.01    4.43             0.01   10.88             0.20   16.23
     1  GEOMET  ................      0.02    5.07             0.04   41.09             0.14   10.86
     1  INPUTA  ................      0.00    1.23             0.00    0.93             0.01    0.47
     1  MAINSY  ................      0.01    2.91             0.01    9.27             0.21   16.43
     1  SYMFIT  ................      0.00    0.08             0.00    0.41             0.00    0.05
     1  CORORT  ................      0.00    0.15             0.00    0.72             0.01    0.49
     1  SYMORB  ................      0.00    0.19             0.00    0.90             0.00    0.11
     1  FITINT  ................      0.01    2.51             0.00    2.00             0.02    1.34
     1  CLSMAT  ................      0.00    0.32             0.00    0.20             0.01    0.57
     1  ORTHON  ................      0.00    0.54             0.00    1.94             0.01    0.79
     1  GENPT   ................      0.01    4.23             0.00    0.00             0.05    3.77
     1  PTBAS   ................      0.00    1.47             0.00    0.00             0.01    0.87
     8  FOCKY   ................      0.02   46.88             0.00   16.18             0.03   21.45
     8  FOCKTR  ................      0.00    1.43             0.00    0.31             0.00    0.38
     8  FOCKNM  ................      0.00    0.13             0.00    0.02             0.00    0.04
     8  SDIIS   ................      0.00    2.70             0.00    1.11             0.02   11.05
     8  EMERGE  ................      0.00   11.71             0.00    3.14             0.01    6.95
     1  COREPS  ................      0.01    2.02             0.00    0.00             0.01    0.85
     1  POPAN   ................      0.00    1.34             0.00    0.32             0.01    1.10
     1  DEBYE   ................      0.00    0.00             0.00    1.68             0.01    0.56
     1  QMPOT   ................      0.00    0.39             0.00    4.87             0.01    0.45
     1  EXIT PROCEDURE .........      0.03    9.27             0.00    4.00             0.05    3.92


 Currently Open Files (EXIT00)
 ====================

 Unit    Access Format  Status   Type       Ident (file)
 -------------------------------------------------------
   3      SEQ    FORM   TRANSP  NORMAL      LOGFILE
                                          ( logfile )


 Buffered I/O statistics
 =======================
 Memory available:                     67108864
 Number of records fitting in memory:     16131
 Input :   1.3% of                         3604  *4k bytes
 Output:  10.6% of                         1855  *4k bytes
 Records from serial files evicted:           0
                    others evicted:           0
 Hash table lookups:      14887 with          0 conflicts (  0.00%)

 ***************************************************************************************************
 (LOGFILE)
 <Jan01-2013> <00:00:00>  DIRAC 2013.01  RunTime: Jan01-2013 00:00:00  Nodes: 1  Procs: 1
 <Jan01-2013> <00:00:00>  NORMAL TERMINATION
 <Jan01-2013> <00:00:00>  END
 <Jan01-2013> <00:00:00>  ADF 2013.01  RunTime: Jan01-2013 00:00:00  Nodes: 1  Procs: 1
 <Jan01-2013> <00:00:00>  Hydrogen (QZ, all electron, 5S 2P 2D)
 <Jan01-2013> <00:00:00>  RunType   : CREATE
 <Jan01-2013> <00:00:01>  Net Charge: 0 (Nuclei minus Electrons)
 <Jan01-2013> <00:00:01>  Symmetry  : ATOM
  Coordinates
    Atom         X           Y           Z   (Angstrom)
    1.H         0.000000    0.000000    0.000000
 <Jan01-2013> <00:00:01>  >>>> CORORT
 <Jan01-2013> <00:00:01>  >>>> FITINT
 <Jan01-2013> <00:00:01>  >>>> CLSMAT
 <Jan01-2013> <00:00:01>  >>>> ORTHON
 <Jan01-2013> <00:00:01>  >>>> GENPT
 <Jan01-2013> <00:00:01>  Acc.Num.Int.=  10.000
 <Jan01-2013> <00:00:01>  Block Length=  44
 <Jan01-2013> <00:00:01>  >>>> PTBAS
 <Jan01-2013> <00:00:01>  >>>> CYCLE
 <Jan01-2013> <00:00:01>    1
 <Jan01-2013> <00:00:01>    2  ErrMat   0.03803841  MaxEl  0.03078708
 <Jan01-2013> <00:00:01>    3  ErrMat   0.00916622  MaxEl -0.00901560
 <Jan01-2013> <00:00:01>    4  ErrMat   0.00035667  MaxEl  0.00031421
 <Jan01-2013> <00:00:01>    5  ErrMat   0.00000962  MaxEl -0.00000892
 <Jan01-2013> <00:00:01>    6  ErrMat   0.00000013  MaxEl  0.00000008
 <Jan01-2013> <00:00:01>    7  ErrMat   0.00000000  MaxEl  0.00000000
 <Jan01-2013> <00:00:01>  SCF converged
 <Jan01-2013> <00:00:01>    8  ErrMat   0.00000000  MaxEl  0.00000000
 <Jan01-2013> <00:00:01>   Solutions with partially occupied orbitals may not be
 <Jan01-2013> <00:00:01>   lowest in energy. You might consider lowering the
 <Jan01-2013> <00:00:01>   symmetry in the input and explicitly specifying integer
 <Jan01-2013> <00:00:01>   occupations. In that case always check that you obtain
 <Jan01-2013> <00:00:01>   an aufbau solution.
 <Jan01-2013> <00:00:01>  >>>> POPAN
 <Jan01-2013> <00:00:01>  >>>> DEBYE
 <Jan01-2013> <00:00:01>  NORMAL TERMINATION
 <Jan01-2013> <00:00:02>  END

 *******************************************************************************
 *                                                                             *
 *  -------------------------------------                                      *
 *   Amsterdam Density Functional  (ADF)         2013.01   April 2, 2013       *
 *  -------------------------------------                                      *
 *                                               Build 201304112106            *
 *                                                                             *
 *                                                                             *
 *                            =====================                            *
 *                            |                   |                            *
 *                            |     D I R A C     |                            *
 *                            |                   |                            *
 *                            =====================                            *
 *                                                                             *
 *                                                                             *
 *   Online information and documentation:  http://www.scm.com                 *
 *   E-mail:  support@scm.com   info@scm.com                                   *
 *                                                                             *
 *   Scientific publications using ADF results must be properly referenced     *
 *   See the User Manuals (or the web site) for recommended citations          *
 *   The terms and conditions of the End User License Agreement apply to       *
 *   the use of ADF, http://www.scm.com/Sales/LicAgreement.html                *
 *                                                                             *
 ****************************  x86_64_linux_intel  *****************************
 
 Licensed to: Prof. Cacier Hadad / University of Antioquia / Medellin / COLOMBIA
 SCM User ID: u15319
  
 DIRAC 2013.01  RunTime: Jan01-2013 00:00:02  Nodes: 1  Procs: 1

 Temporary files are created in /tmp/kid_0.JengNO

1
 OXYGEN ATOM all electron RELATIVISTIC, Point Nuc, A and c fr
 N J RN H ZN XION ANUC CLIGHT
 5000    4100.00000000197.36710137  8.00000000  0.00000000   15.994914  0.1370360E+03
  PH   PHI     EPS        DEL        DELRVR
  0.30  0.30     2500.00  0.00001000  0.00001000
 IDIRC  NC1  NDEBU NPRIN  IPUN IRCOR IWCOR
   1   300     0     0     0     0     0
   XALPHA      XLATTER      RNUC
  0.70000000  0.00000000  0.00000000 Point Charge
   XN   XL   XJ      XE          XZ      XDELL
  1.0  0.0  0.5      -5.000       2.000     0.00000
  2.0  0.0  0.5      -1.000       2.000     0.00000
  2.0  1.0  0.5      -1.000       2.000     0.00000
  2.0  1.0  1.5      -1.000       2.000     0.00000
 ICORP=  0  NPCL=  0  DEMP=0.00  PEPS=0.000000
 R(1)=  0.1000000E-08 D=  0.1005080E+01 RNUC=  0.0000000E+00
 converged at cycle   28  DENSITY AVERAGING    0.2400
  MAXIMUM ERROR IN R.V(R) IS   0.81125670E-05
 Q,EY,EV,EZ,ESUM,ETOT,RHO  0.800000E+01 -0.101247E+02 -0.114961E+03 -0.177573E+03 -0.405053E+02 -0.743427E+02  0.414766E-14


 DIRAC CALCULATION
1                    OXYGEN ATOM all electron RELATIVISTIC, Point Nuc, A and c from libtc


 EXCHANGE COEFFICIENT=  0.7000000           TAIL CORRECTION=  0.           NUCLEAR RADIUS=  0.000E+00
0                       ORBITAL    N    L    J     ELECTRONS     EIGENVALUE                DELTA OF EIGENV.

                          1S1/2  1.0  0.0  0.5     2.000       -0.1880014E+02                 0.7264359E-06
                          2S1/2  2.0  0.0  0.5     2.000       -0.8412236E+00                 0.5932752E-05
                          2P1/2  2.0  1.0  0.5     2.000       -0.3063203E+00                 0.5998471E-05
                          2P3/2  2.0  1.0  1.5     2.000       -0.3049609E+00                 0.5986971E-05


                                        NUCLEAR CHARGE=    8.000000
                            INTEGRAL OF CHARGE DENSITY=    8.000000
                           SUM OF THE ORBITAL ENERGIES=    -40.5053
                                          TOTAL ENERGY=    -74.3427
                                        KINETIC ENERGY=     74.4552
                             NUCLEAR ATTRACTION ENERGY=   -177.5730
                             ELECTRON REPULSION ENERGY=     36.3686
                                       EXCHANGE ENERGY=     -7.5935

 *******************************************************************************

                             D I R A C   E X I T
 NORMAL TERMINATION



 =================
 Timing Statistics
 =================
  
 Total Used :                     CPU=        0.17      System=        0.04     Elapsed=        0.35

 Calls  Section                     ( Mean, Percentage )
 ---------------------------------------------------------------------------------------------------
     2  ><      ................      0.00    0.01             0.00    0.02             0.00    0.01
     1  EXIT PROCEDURE .........      0.17   99.99             0.04   99.98             0.35   99.99


 Currently Open Files (EXIT00)
 ====================

 Unit    Access Format  Status   Type       Ident (file)
 -------------------------------------------------------
   3      SEQ    FORM   TRANSP  NORMAL      LOGFILE
                                          ( logfile )


 Buffered I/O statistics
 =======================
 Memory available:                     67108864
 Number of records fitting in memory:     16131
 Input : 100.0% of                            0  *4k bytes
 Output: 100.0% of                            0  *4k bytes
 Records from serial files evicted:           0
                    others evicted:           0
 Hash table lookups:          0 with          0 conflicts (100.00%)
(INPUT FILE)
Create O   file=/home/andyzapa/adf2013.01/atomicdata/ZORA/QZ4P/O
XC
GGA PBE
End
relativistic ZORA
Corepotentials t12.rel
End Input

 *******************************************************************************
 *                                                                             *
 *  -------------------------------------                                      *
 *   Amsterdam Density Functional  (ADF)         2013.01   April 2, 2013       *
 *  -------------------------------------                                      *
 *                                               Build 201304112215            *
 *                                                                             *
 *                                                                             *
 *                              =================                              *
 *                              |               |                              *
 *                              |     A D F     |                              *
 *                              |               |                              *
 *                              =================                              *
 *                                                                             *
 *                                                                             *
 *   Online information and documentation:  http://www.scm.com                 *
 *   E-mail:  support@scm.com   info@scm.com                                   *
 *                                                                             *
 *   Scientific publications using ADF results must be properly referenced     *
 *   See the User Manuals (or the web site) for recommended citations          *
 *   The terms and conditions of the End User License Agreement apply to       *
 *   the use of ADF, http://www.scm.com/Sales/LicAgreement.html                *
 *                                                                             *
 ********************  x86_64_linux_intel / platform_mpi  **********************
 
 Licensed to: Prof. Cacier Hadad / University of Antioquia / Medellin / COLOMBIA
 SCM User ID: u15319
  
 ADF 2013.01  RunTime: Jan01-2013 00:00:02  Nodes: 1  Procs: 1

 Temporary files are created in /tmp/kid_0.T19wLm

 Oxygen (QZ, all electron, 8S 4P 2D 2F)



 ===========================
 A T T A C H E D   F I L E S
 ===========================
  
 CREATE - Data File:    /home/andyzapa/adf2013.01/atomicdata/ZORA/QZ4P/O
                        Oxygen (QZ, all electron, 8S 4P 2D 2F)
 Core Potentials:
         file : t12.rel



 ===============================
 M O D E L   P A R A M E T E R S
 ===============================
  
 DENSITY FUNCTIONAL POTENTIAL (scf)
    LDA:                               PW92                                    == Not Default ==
    Gradient Corrections:              PBEc PBEx                               == Not Default ==

 SPIN  (restricted / unrestr.)
    Molecule:                          Restricted                               

 OTHER ASPECTS
    Relativistic Corrections:          scalar (ZORA,SAPA)                      == Not Default ==

    Nuclear Charge Density Model:      Point Charge Nuclei                                                                                                                                                                                     
    Core Treatment:                    Frozen Orbital(s)                        

    Hyperfine or Zeeman Interaction:   ---                                      



 =====================================
 S Y M M E T R Y ,   E L E C T R O N S
 =====================================
  
 Symmetry: ATOM

 Irreducible Representations, including subspecies
 -------------------------------------------------
 S
 P:x  P:y  P:z
 D:z2  D:x2-y2  D:xy  D:xz  D:yz
 F:z3  F:z  F:xyz  F:z2x  F:z2y  F:x  F:y


 Configuration of Valence Electrons
 ==================================

          Occupation Numbers
          -------------------------------------------------
 S        2*2
 P        4
 D        0
 F        0
          -------------------------------------------------

 Total:   8

 Net Charge: 0 (Nuclei minus Electrons)

 Preset values for MO occupations will be applied through SCF cycle no. 1000000
 Thereafter, the program will assign electrons to MOs that are spatially
 similar to the occupied MOs in a "reference" cycle ("KeepOrbitals").
 The reference cycle is always the PREVIOUS cycle: it will evolve with
 the SCF procedure.



 ================================
 (Slater-type)  F U N C T I O N S  ***  (Basis and Fit)  ***
 ================================
  

 Atom Type    1  (O)
 ==============

 Valence Basis Sets:  16
 -----------------------
   1 S   14.800000
   1 S    8.750000
   1 S    6.650000
   2 S    7.100000
   2 S    3.200000
   2 S    2.050000
   2 S    1.500000
   2 S    0.750000
   2 P    5.700000
   2 P    3.050000
   2 P    1.650000
   2 P    1.000000
   3 D    2.500000
   3 D    1.500000
   4 F    4.000000
   4 F    2.000000

 Charge Fitting Sets (for the computation of the Coulomb Potential):  37
 -----------------------------------------------------------------------
   1 S   29.600000
   1 S   22.760000
   1 S   17.500000
   1 S   11.580000
   2 S   14.160000
   2 S   10.290000
   2 S    7.480000
   2 S    5.430000
   3 S    5.780000
   3 S    4.410000
   3 S    3.370000
   3 S    2.570000
   3 S    1.960000
   3 S    1.500000
   2 P   14.450000
   2 P    9.770000
   2 P    6.610000
   3 P    6.560000
   3 P    4.710000
   3 P    3.390000
   3 P    2.430000
   3 P    1.750000
   3 D   11.400000
   3 D    7.640000
   3 D    5.120000
   4 D    4.550000
   4 D    3.200000
   4 D    2.250000
   4 F   12.750000
   4 F    8.120000
   4 F    5.170000
   5 F    4.130000
   5 F    2.750000
   5 G    9.700000
   5 G    6.560000
   5 G    4.440000
   5 G    3.000000


 BAS: List of all Elementary Cartesian Basis Functions
 =====================================================

 The numbering in the list below (to the right of the function characteristics) is referred
 to in print-outs of MO eigenvectors and Mulliken populations in the BAS representation
 (as contrasted to the SFO representation).

 Notes:
 1. The functions are characterized by a polynomial prefactor (powers of x,y,z and r) and
    an exponential decay factor alpha.
 2. Since the basis sets are specific for an atom TYPE, the individual functions occur on
    all atoms of that type.
 3. The word 'Core' in the left margin signals that it is a Core Function (CF) : not a
    degree of freedom in the valence set, but only used to ensure orthogonalization of
    the other valence basis functions on the frozen Core Orbitals.


 (power of) X  Y  Z  R     Alpha  on Atom
            ==========     =====     ==========

 O                                    1
                                  ---------------------------------------------------------------------------
            0  0  0  0    14.800      1
            0  0  0  0     8.750      2
            0  0  0  0     6.650      3
            0  0  0  1     7.100      4
            0  0  0  1     3.200      5
            0  0  0  1     2.050      6
            0  0  0  1     1.500      7
            0  0  0  1     0.750      8
            1  0  0  0     5.700      9
            0  1  0  0     5.700     10
            0  0  1  0     5.700     11
            1  0  0  0     3.050     12
            0  1  0  0     3.050     13
            0  0  1  0     3.050     14
            1  0  0  0     1.650     15
            0  1  0  0     1.650     16
            0  0  1  0     1.650     17
            1  0  0  0     1.000     18
            0  1  0  0     1.000     19
            0  0  1  0     1.000     20
            2  0  0  0     2.500     21
            1  1  0  0     2.500     22
            1  0  1  0     2.500     23
            0  2  0  0     2.500     24
            0  1  1  0     2.500     25
            0  0  2  0     2.500     26
            2  0  0  0     1.500     27
            1  1  0  0     1.500     28
            1  0  1  0     1.500     29
            0  2  0  0     1.500     30
            0  1  1  0     1.500     31
            0  0  2  0     1.500     32
            3  0  0  0     4.000     33
            2  1  0  0     4.000     34
            2  0  1  0     4.000     35
            1  2  0  0     4.000     36
            1  1  1  0     4.000     37
            1  0  2  0     4.000     38
            0  3  0  0     4.000     39
            0  2  1  0     4.000     40
            0  1  2  0     4.000     41
            0  0  3  0     4.000     42
            3  0  0  0     2.000     43
            2  1  0  0     2.000     44
            2  0  1  0     2.000     45
            1  2  0  0     2.000     46
            1  1  1  0     2.000     47
            1  0  2  0     2.000     48
            0  3  0  0     2.000     49
            0  2  1  0     2.000     50
            0  1  2  0     2.000     51
            0  0  3  0     2.000     52

 Total number of charge fitting functions (nprimf)       184
 Total number of Cartesian basis functions (naos)         52
 Total number of Cartesian core functions  (ncos)          0



 BAS: List of all Elementary Cartesian Basis Functions
 =====================================================

 The numbering in the list below (to the right of the function characteristics) is referred
 to in print-outs of MO eigenvectors and Mulliken populations in the BAS representation
 (as contrasted to the SFO representation).

 Notes:
 1. The functions are characterized by a polynomial prefactor (powers of x,y,z and r) and
    an exponential decay factor alpha.
 2. Since the basis sets are specific for an atom TYPE, the individual functions occur on
    all atoms of that type.
 3. The word 'Core' in the left margin signals that it is a Core Function (CF) : not a
    degree of freedom in the valence set, but only used to ensure orthogonalization of
    the other valence basis functions on the frozen Core Orbitals.


 (power of) X  Y  Z  R     Alpha  on Atom
            ==========     =====     ==========

 O                                    1
                                  ---------------------------------------------------------------------------
            0  0  0  0    14.800      1
            0  0  0  0     8.750      2
            0  0  0  0     6.650      3
            0  0  0  1     7.100      4
            0  0  0  1     3.200      5
            0  0  0  1     2.050      6
            0  0  0  1     1.500      7
            0  0  0  1     0.750      8
            1  0  0  0     5.700      9
            0  1  0  0     5.700     10
            0  0  1  0     5.700     11
            1  0  0  0     3.050     12
            0  1  0  0     3.050     13
            0  0  1  0     3.050     14
            1  0  0  0     1.650     15
            0  1  0  0     1.650     16
            0  0  1  0     1.650     17
            1  0  0  0     1.000     18
            0  1  0  0     1.000     19
            0  0  1  0     1.000     20
            2  0  0  0     2.500     21
            1  1  0  0     2.500     22
            1  0  1  0     2.500     23
            0  2  0  0     2.500     24
            0  1  1  0     2.500     25
            0  0  2  0     2.500     26
            2  0  0  0     1.500     27
            1  1  0  0     1.500     28
            1  0  1  0     1.500     29
            0  2  0  0     1.500     30
            0  1  1  0     1.500     31
            0  0  2  0     1.500     32
            3  0  0  0     4.000     33
            2  1  0  0     4.000     34
            2  0  1  0     4.000     35
            1  2  0  0     4.000     36
            1  1  1  0     4.000     37
            1  0  2  0     4.000     38
            0  3  0  0     4.000     39
            0  2  1  0     4.000     40
            0  1  2  0     4.000     41
            0  0  3  0     4.000     42
            3  0  0  0     2.000     43
            2  1  0  0     2.000     44
            2  0  1  0     2.000     45
            1  2  0  0     2.000     46
            1  1  1  0     2.000     47
            1  0  2  0     2.000     48
            0  3  0  0     2.000     49
            0  2  1  0     2.000     50
            0  1  2  0     2.000     51
            0  0  3  0     2.000     52
1
 ***************************************************************************************************



                                              ***********************
                                              *  T E C H N I C A L  *
                                              ***********************
  



 =============================================================
 P A R A L L E L I Z A T I O N  and  V E C T O R I Z A T I O N
 =============================================================
  
 Nr of parallel processes:                                1
 Maximum vector length in NumInt loops:                 128



 ===============
 I O  vs.  C P U  ***  (store numerical data on disk or recalculate)  ***
 ===============
  
 Basis functions:   recalculate when needed
 Fit functions:     recalculate when needed

 IO buffersize (Mb):                                     64.000000



 =====================
 S C F   U P D A T E S
 =====================
  
 Max. nr. of cycles:                               100
 Convergence criterion:                              0.0000000100
   secondary criterion:                              0.0000000100

 Mix parameter (when DIIS does not apply):           0.2000000000
 Special mix parameter for the first cycle:          1.0000000000


 DIIS (Direct Inversion in Iteration Space)
    Replace damping when SCF Error is below:         0.5000000000
    Apply anyway after SCF cycle:
                                                     5
    (Max.) nr. of expansion vectors:                10

    Upperbound on expansion coefficients:            5.0000000000
    (when exceeded, IterationSpace is re-built)
    2nd Upperbound on coefficients:                 25.0000000000
    (when exceeded, simple damping will be used)
 Automatic ElectronSmearing (in case of problematic SCF convergence) disabled



 =================
 P R E C I S I O N  ***  (General: NumInt, NeglectFunctionTails, ...)  ***
 =================
  

 NumInt:           Target precision:                10.0000000000
 -------           Initial precision:               10.0000000000
                   Min. precision (optimization):   10.0000000000

 Neglect Functions:          Basis functions:        0.1000000000E-11
 ------------------          Fit functions:          0.1000000000E-11



 ===========================
 L I N E A R   S C A L I N G
 ===========================
  

 Cut-off radii density fit:                        0.1000000000E-13
 Overlap cut-off criterion AO matrix elements:     0.1000000000E-11
 Cut-offs for Coulomb potential and fitted density:0.1000000000E-13
 Cut-off criterion for Coulomb multipole terms:    0.1000000000E-13
 Progressive Convergence parameter:                 0.000000000    
1
 ***************************************************************************************************



                                            ***************************
                                            *  C O M P U T A T I O N  *
                                            ***************************
  

 Number of elements of the density matrix on this node (used, total):      1378      1378



 ====================================================
 Numerical Integration : Voronoi Polyhedra (Te Velde)
 ====================================================
  
 General Accuracy Parameter :                         10.00

 Symmetry used in the points section:  ATOM  


 Summary of the Symmetry Unique Points:
 --------------------------------------
    Nr. of used Symmetry Operators                     1

    Points in the Atomic Spheres                      61
    Points in the Atomic Polyhedra                     0
    Points in the Outer Region                         0
    ----------------------------------------------------
    Total                                             61

    Sum of Weights                                 58501.056183

 Total nr. of points:         61
 Nr. of blocks:                1
 Block length:                61
 Nr. of dummy points:          0


 Test of Precision of the Numerical Integration Grid
 ===================================================

 Integral of the Total Core Density:                   0.00000000000000



 =====
 S C F
 =====
  

 CYCLE    1
 orbitals (Q,E):
 ---------------
 S :1...8            ( 2.00   -32.0159)  ( 2.00    -8.0044)  ( 0.00    -3.5574)  ( 0.00    -1.9901)
                     ( 0.00    -1.2515)  ( 0.00     4.1058)  ( 0.00    41.2206)  ( 0.00   308.5800)
 P :1...4            ( 4.00    -7.9758)  ( 0.00    -3.5116)  ( 0.00    -1.8856)  ( 0.00     3.1956)
 D :1...2            ( 0.00    -3.5495)  ( 0.00    -1.9917)
 F :1...2            ( 0.00    -1.9999)  ( 0.00     1.0590)

 CYCLE    2
 d-Pmat  mean:  0.11E+01
 imax=      3: -0.25E+02
 orbitals (Q,E):
 ---------------
 S :1...3            ( 2.00   -14.5566)  ( 2.00    -0.0356)  ( 0.00     0.1667)
 P :1...2            ( 4.00     0.2048)  ( 0.00     0.7903)
 D :1...1            ( 0.00     0.7381)
 F :1...1            ( 0.00     1.6042)

 CYCLE    3
 d-Pmat  mean:  0.30E+00
 imax=     20: -0.24E+01
 orbitals (Q,E):
 ---------------
 S :1...3            ( 2.00   -16.2388)  ( 2.00    -0.4301)  ( 0.00     0.0620)
 P :1...2            ( 4.00     0.0108)  ( 0.00     0.4058)
 D :1...1            ( 0.00     0.5775)
 F :1...1            ( 0.00     1.4155)

 CYCLE    4
 d-Pmat  mean:  0.10E+00
 imax=     20: -0.11E+01
 orbitals (Q,E):
 ---------------
 S :1...3            ( 2.00   -17.2725)  ( 2.00    -0.6986)  ( 0.00     0.0275)
 P :1...2            ( 4.00    -0.1717)  ( 0.00     0.2612)
 D :1...1            ( 0.00     0.5085)
 F :1...1            ( 0.00     1.3362)

 CYCLE    5
 d-Pmat  mean:  0.56E-01
 imax=      3:  0.70E+00
 orbitals (Q,E):
 ---------------
 S :1...3            ( 2.00   -18.8741)  ( 2.00    -0.8425)  ( 0.00     0.0251)
 P :1...2            ( 4.00    -0.2957)  ( 0.00     0.2201)
 D :1...1            ( 0.00     0.5505)
 F :1...1            ( 0.00     1.3859)

 CYCLE    6
 d-Pmat  mean:  0.57E-02
 imax=      2:  0.75E-01
 orbitals (Q,E):
 ---------------
 S :1...3            ( 2.00   -18.9263)  ( 2.00    -0.8875)  ( 0.00     0.0144)
 P :1...2            ( 4.00    -0.3386)  ( 0.00     0.1983)
 D :1...1            ( 0.00     0.5241)
 F :1...1            ( 0.00     1.3583)

 CYCLE    7
 d-Pmat  mean:  0.80E-03
 imax=      6: -0.45E-02
 orbitals (Q,E):
 ---------------
 S :1...3            ( 2.00   -18.9106)  ( 2.00    -0.8796)  ( 0.00     0.0160)
 P :1...2            ( 4.00    -0.3310)  ( 0.00     0.2007)
 D :1...1            ( 0.00     0.5265)
 F :1...1            ( 0.00     1.3609)

 CYCLE    8
 d-Pmat  mean:  0.91E-04
 imax=      6:  0.77E-03
 orbitals (Q,E):
 ---------------
 S :1...3            ( 2.00   -18.9122)  ( 2.00    -0.8804)  ( 0.00     0.0159)
 P :1...2            ( 4.00    -0.3317)  ( 0.00     0.2005)
 D :1...1            ( 0.00     0.5262)
 F :1...1            ( 0.00     1.3606)

 CYCLE    9
 d-Pmat  mean:  0.72E-06
 imax=      2: -0.12E-04
 orbitals (Q,E):
 ---------------
 S :1...3            ( 2.00   -18.9122)  ( 2.00    -0.8804)  ( 0.00     0.0159)
 P :1...2            ( 4.00    -0.3317)  ( 0.00     0.2005)
 D :1...1            ( 0.00     0.5262)
 F :1...1            ( 0.00     1.3606)

 CYCLE   10
 d-Pmat  mean:  0.12E-07
 imax=      6: -0.16E-06
 orbitals (Q,E):
 ---------------
 S :1...3            ( 2.00   -18.9122)  ( 2.00    -0.8804)  ( 0.00     0.0159)
 P :1...2            ( 4.00    -0.3317)  ( 0.00     0.2005)
 D :1...1            ( 0.00     0.5262)
 F :1...1            ( 0.00     1.3606)

 CYCLE   11
 d-Pmat  mean:  0.11E-09
 imax=      6: -0.12E-08
 orbitals (Q,E):
 ---------------
 S :1...3            ( 2.00   -18.9122)  ( 2.00    -0.8804)  ( 0.00     0.0159)
 P :1...2            ( 4.00    -0.3317)  ( 0.00     0.2005)
 D :1...1            ( 0.00     0.5262)
 F :1...1            ( 0.00     1.3606)

 SCF CONVERGED

 CYCLE   12
1
 ***************************************************************************************************



                                                *******************
                                                *  R E S U L T S  *
                                                *******************
  
 *** Setting up for NEW gradients in focky
 *** Using FIT density in focky

 Scaled ZORA Orbital Energies, per Irrep and Spin:
 =================================================
                        Occup              E (au)              E (eV)       Diff (eV) with prev. cycle
                        -----      --------------------        ------       --------------------------
 S
               1        2.000     -0.18912163588984E+02      -514.626              -7.16E-09
               2        2.000     -0.88042536044543E+00       -23.958              -7.12E-09
               3        0.000      0.15917239287972E-01         0.433
               4        0.000      0.47157189633591E+00        12.832
               5        0.000      0.25092163529346E+01        68.279
               6        0.000      0.11901959076240E+02       323.869
               7        0.000      0.52347890774294E+02      1424.459
               8        0.000      0.32159312651573E+03      8750.994
 P
               1        4.000     -0.33172720151306E+00        -9.027              -6.97E-09
               2        0.000      0.20052917629028E+00         5.457
               3        0.000      0.16594440941108E+01        45.156
               4        0.000      0.12142335979422E+02       330.410
 D
               1        0.000      0.52623159764820E+00        14.319
               2        0.000      0.24055384908689E+01        65.458
 F
               1        0.000      0.13606224427136E+01        37.024
               2        0.000      0.70188296925037E+01       190.992


 Partially Occupied:
               1 P                -0.33172720151306E+00
  
 HOMO :        2 S                -0.88042536044543E+00
 LUMO :        3 S                 0.15917239287972E-01
  


 Orbital Energies, all Irreps
 ========================================

 Irrep        no.  (spin)   Occup              E (au)                E (eV)
 ---------------------------------------------------------------------------
 S             1             2.00       -0.18912163588984E+02      -514.6262
 S             2             2.00       -0.88042536044543E+00       -23.9576
 P             1             4.00       -0.33172720151306E+00        -9.0268
 S             3             0.00        0.15917239287972E-01         0.4331
 P             2             0.00        0.20052917629028E+00         5.4567
 S             4             0.00        0.47157189633591E+00        12.8321
 D             1             0.00        0.52623159764820E+00        14.3195
 F             1             0.00        0.13606224427136E+01        37.0244
 P             3             0.00        0.16594440941108E+01        45.1558
 D             2             0.00        0.24055384908689E+01        65.4580
 S             5             0.00        0.25092163529346E+01        68.2793
 F             2             0.00        0.70188296925037E+01       190.9921
 S             6             0.00        0.11901959076240E+02       323.8688
 P             4             0.00        0.12142335979422E+02       330.4098
 S             7             0.00        0.52347890774294E+02      1424.4586
 S             8             0.00        0.32159312651573E+03      8750.9942


 All Electron Calculation, thus no Orbital Energies of the Core Orbitals are calculated



 =======================================
 M U L L I K E N   P O P U L A T I O N S
 =======================================
  
 The survey below gives for each atom:
 a) the total charge (Z minus electrons)
 b) the net spin polarization (nr of electrons spin-A minus spin-B)
 c) for each spin the atomic electron valence density (integrated) per L-value.

 Atom              Charge    Spin density          S         P         D         F
 ----              ------    ------------       ------    ------    ------    ------
 1 O               0.0000                       4.0000    4.0000    0.0000    0.0000

 Populations of individual BAS functions
 ----------------------------------------
 1 O            0.0407  0.7707  1.2791 -0.1485  0.7639  1.0393  0.2537  0.0009  0.0450  0.0450
                0.0450  0.4807  0.4807  0.4807  0.6422  0.6422  0.6422  0.1654  0.1654  0.1654
                0.0000  0.0000  0.0000  0.0000  0.0000  0.0000  0.0000  0.0000  0.0000  0.0000
                0.0000  0.0000  0.0000  0.0000  0.0000  0.0000  0.0000  0.0000  0.0000  0.0000
                0.0000  0.0000  0.0000  0.0000  0.0000  0.0000  0.0000  0.0000  0.0000  0.0000
                0.0000  0.0000

 Gross Charges per Atom (Z minus electrons)
 ==========================================
             0.0000
 Net Total:  0.00000000


 Atom-Atom Population Matrix (off-diagonal elements not doubled)
 ===============================================================

     1 :     8.0000



 =============
 Dipole Moment  ***  (Debye)  ***
 =============
  
 Vector   :         0.00000000      0.00000000      0.00000000
 Magnitude:         0.00000000

 This molecular dipole moment is calculated with analytic integration



 =========================================
 Quadrupole Moment (Buckingham convention)  ***  (a.u.)  ***
 =========================================
  
      quad-xx        quad-xy        quad-xz        quad-yy        quad-yz        quad-zz
      0.00000000     0.00000000     0.00000000     0.00000000     0.00000000     0.00000000

 This molecular quadrupole moment is calculated with analytic integration



 ===============================================================================
 Electrostatic potential at the Nuclei due to valence electrons and other nuclei
 ===============================================================================
  
         Atom                  Potential
         ----                  ---------
     1)   O                  22.26490088
 
 
 ========================
 No memory problems found
 ========================
 
 Maximum number of active allocate calls:         476
 
 *******************************************************************************

                             A D F   E X I T
 NORMAL TERMINATION



 =================
 Timing Statistics
 =================
  
 Total Used :                     CPU=        0.45      System=        0.11     Elapsed=        1.60

 Calls  Section                     ( Mean, Percentage )
 ---------------------------------------------------------------------------------------------------
     3  ><      ................      0.00    0.03             0.00    2.90             0.00    0.88
     1  INIT    ................      0.01    2.62             0.01   10.30             0.21   13.00
     1  GEOMET  ................      0.02    4.10             0.03   30.08             0.09    5.48
     1  INPUTA  ................      0.00    0.76             0.00    1.27             0.01    0.36
     1  MAINSY  ................      0.01    2.74             0.01    5.71             0.07    4.12
     1  SYMFIT  ................      0.00    0.07             0.00    0.38             0.00    0.05
     1  CORORT  ................      0.00    0.11             0.00    0.62             0.02    1.54
     1  SYMORB  ................      0.00    0.44             0.00    0.04             0.00    0.13
     1  FITINT  ................      0.01    2.28             0.00    3.36             0.03    1.76
     1  CLSMAT  ................      0.00    0.11             0.00    0.96             0.01    0.58
     1  ORTHON  ................      0.00    0.30             0.00    2.69             0.02    1.22
     1  GENPT   ................      0.01    2.00             0.01    6.84             0.09    5.90
     1  PTBAS   ................      0.00    1.08             0.00    0.70             0.03    1.74
    12  FOCKY   ................      0.02   50.02             0.00   19.50             0.04   31.48
    12  FOCKTR  ................      0.00    1.81             0.00    0.63             0.00    0.55
    12  FOCKNM  ................      0.00    0.13             0.00    0.05             0.00    0.04
    12  SDIIS   ................      0.00    3.12             0.00    1.31             0.02   15.52
    12  EMERGE  ................      0.01   16.19             0.00    9.91             0.01    9.01
     1  COREPS  ................      0.01    1.93             0.00    0.11             0.01    0.75
     1  POPAN   ................      0.01    1.41             0.00    0.00             0.01    0.76
     1  DEBYE   ................      0.00    0.44             0.00    0.00             0.03    1.58
     1  QMPOT   ................      0.01    1.59             0.00    0.00             0.01    0.44
     1  EXIT PROCEDURE .........      0.03    6.72             0.00    2.63             0.05    3.09


 Currently Open Files (EXIT00)
 ====================

 Unit    Access Format  Status   Type       Ident (file)
 -------------------------------------------------------
   3      SEQ    FORM   TRANSP  NORMAL      LOGFILE
                                          ( logfile )


 Buffered I/O statistics
 =======================
 Memory available:                     67108864
 Number of records fitting in memory:     16131
 Input :   0.9% of                         6430  *4k bytes
 Output:   8.3% of                         2767  *4k bytes
 Records from serial files evicted:           0
                    others evicted:           0
 Hash table lookups:      25047 with          0 conflicts (  0.00%)

 ***************************************************************************************************
 (LOGFILE)
 <Jan01-2013> <00:00:00>  DIRAC 2013.01  RunTime: Jan01-2013 00:00:00  Nodes: 1  Procs: 1
 <Jan01-2013> <00:00:00>  NORMAL TERMINATION
 <Jan01-2013> <00:00:00>  END
 <Jan01-2013> <00:00:00>  ADF 2013.01  RunTime: Jan01-2013 00:00:00  Nodes: 1  Procs: 1
 <Jan01-2013> <00:00:00>  Hydrogen (QZ, all electron, 5S 2P 2D)
 <Jan01-2013> <00:00:00>  RunType   : CREATE
 <Jan01-2013> <00:00:01>  Net Charge: 0 (Nuclei minus Electrons)
 <Jan01-2013> <00:00:01>  Symmetry  : ATOM
  Coordinates
    Atom         X           Y           Z   (Angstrom)
    1.H         0.000000    0.000000    0.000000
 <Jan01-2013> <00:00:01>  >>>> CORORT
 <Jan01-2013> <00:00:01>  >>>> FITINT
 <Jan01-2013> <00:00:01>  >>>> CLSMAT
 <Jan01-2013> <00:00:01>  >>>> ORTHON
 <Jan01-2013> <00:00:01>  >>>> GENPT
 <Jan01-2013> <00:00:01>  Acc.Num.Int.=  10.000
 <Jan01-2013> <00:00:01>  Block Length=  44
 <Jan01-2013> <00:00:01>  >>>> PTBAS
 <Jan01-2013> <00:00:01>  >>>> CYCLE
 <Jan01-2013> <00:00:01>    1
 <Jan01-2013> <00:00:01>    2  ErrMat   0.03803841  MaxEl  0.03078708
 <Jan01-2013> <00:00:01>    3  ErrMat   0.00916622  MaxEl -0.00901560
 <Jan01-2013> <00:00:01>    4  ErrMat   0.00035667  MaxEl  0.00031421
 <Jan01-2013> <00:00:01>    5  ErrMat   0.00000962  MaxEl -0.00000892
 <Jan01-2013> <00:00:01>    6  ErrMat   0.00000013  MaxEl  0.00000008
 <Jan01-2013> <00:00:01>    7  ErrMat   0.00000000  MaxEl  0.00000000
 <Jan01-2013> <00:00:01>  SCF converged
 <Jan01-2013> <00:00:01>    8  ErrMat   0.00000000  MaxEl  0.00000000
 <Jan01-2013> <00:00:01>   Solutions with partially occupied orbitals may not be
 <Jan01-2013> <00:00:01>   lowest in energy. You might consider lowering the
 <Jan01-2013> <00:00:01>   symmetry in the input and explicitly specifying integer
 <Jan01-2013> <00:00:01>   occupations. In that case always check that you obtain
 <Jan01-2013> <00:00:01>   an aufbau solution.
 <Jan01-2013> <00:00:01>  >>>> POPAN
 <Jan01-2013> <00:00:01>  >>>> DEBYE
 <Jan01-2013> <00:00:01>  NORMAL TERMINATION
 <Jan01-2013> <00:00:02>  END
 <Jan01-2013> <00:00:02>  DIRAC 2013.01  RunTime: Jan01-2013 00:00:02  Nodes: 1  Procs: 1
 <Jan01-2013> <00:00:02>  NORMAL TERMINATION
 <Jan01-2013> <00:00:02>  END
 <Jan01-2013> <00:00:02>  ADF 2013.01  RunTime: Jan01-2013 00:00:02  Nodes: 1  Procs: 1
 <Jan01-2013> <00:00:02>  Oxygen (QZ, all electron, 8S 4P 2D 2F)
 <Jan01-2013> <00:00:02>  RunType   : CREATE
 <Jan01-2013> <00:00:03>  Net Charge: 0 (Nuclei minus Electrons)
 <Jan01-2013> <00:00:03>  Symmetry  : ATOM
  Coordinates
    Atom         X           Y           Z   (Angstrom)
    1.O         0.000000    0.000000    0.000000
 <Jan01-2013> <00:00:03>  >>>> CORORT
 <Jan01-2013> <00:00:03>  >>>> FITINT
 <Jan01-2013> <00:00:03>  >>>> CLSMAT
 <Jan01-2013> <00:00:03>  >>>> ORTHON
 <Jan01-2013> <00:00:03>  >>>> GENPT
 <Jan01-2013> <00:00:03>  Acc.Num.Int.=  10.000
 <Jan01-2013> <00:00:03>  Block Length=  61
 <Jan01-2013> <00:00:03>  >>>> PTBAS
 <Jan01-2013> <00:00:03>  >>>> CYCLE
 <Jan01-2013> <00:00:03>    1
 <Jan01-2013> <00:00:03>    2  ErrMat   9.74921119  MaxEl  4.13901188
 <Jan01-2013> <00:00:03>    3  ErrMat   3.70162575  MaxEl -2.91656479
 <Jan01-2013> <00:00:03>    4  ErrMat   2.94969143  MaxEl -1.91814781
 <Jan01-2013> <00:00:03>    5  ErrMat   1.88970508  MaxEl -1.07111528
 <Jan01-2013> <00:00:03>    6  ErrMat   0.04645268  MaxEl -0.01876707
 <Jan01-2013> <00:00:03>    7  ErrMat   0.02377733  MaxEl  0.01063637
 <Jan01-2013> <00:00:03>    8  ErrMat   0.00251040  MaxEl -0.00114123
 <Jan01-2013> <00:00:03>    9  ErrMat   0.00000968  MaxEl -0.00000432
 <Jan01-2013> <00:00:03>   10  ErrMat   0.00000018  MaxEl  0.00000007
 <Jan01-2013> <00:00:03>   11  ErrMat   0.00000000  MaxEl  0.00000000
 <Jan01-2013> <00:00:03>  SCF converged
 <Jan01-2013> <00:00:04>   12  ErrMat   0.00000000  MaxEl  0.00000000
 <Jan01-2013> <00:00:04>   Solutions with partially occupied orbitals may not be
 <Jan01-2013> <00:00:04>   lowest in energy. You might consider lowering the
 <Jan01-2013> <00:00:04>   symmetry in the input and explicitly specifying integer
 <Jan01-2013> <00:00:04>   occupations. In that case always check that you obtain
 <Jan01-2013> <00:00:04>   an aufbau solution.
 <Jan01-2013> <00:00:04>  >>>> POPAN
 <Jan01-2013> <00:00:04>  >>>> DEBYE
 <Jan01-2013> <00:00:04>  NORMAL TERMINATION
 <Jan01-2013> <00:00:04>  END

 *******************************************************************************
 *                                                                             *
 *  -------------------------------------                                      *
 *   Amsterdam Density Functional  (ADF)         2013.01   April 2, 2013       *
 *  -------------------------------------                                      *
 *                                               Build 201304112106            *
 *                                                                             *
 *                                                                             *
 *                            =====================                            *
 *                            |                   |                            *
 *                            |     D I R A C     |                            *
 *                            |                   |                            *
 *                            =====================                            *
 *                                                                             *
 *                                                                             *
 *   Online information and documentation:  http://www.scm.com                 *
 *   E-mail:  support@scm.com   info@scm.com                                   *
 *                                                                             *
 *   Scientific publications using ADF results must be properly referenced     *
 *   See the User Manuals (or the web site) for recommended citations          *
 *   The terms and conditions of the End User License Agreement apply to       *
 *   the use of ADF, http://www.scm.com/Sales/LicAgreement.html                *
 *                                                                             *
 ****************************  x86_64_linux_intel  *****************************
 
 Licensed to: Prof. Cacier Hadad / University of Antioquia / Medellin / COLOMBIA
 SCM User ID: u15319
  
 DIRAC 2013.01  RunTime: Jan01-2013 00:00:04  Nodes: 1  Procs: 1

 Temporary files are created in /tmp/kid_0.zSaxHi

1
 MERCURY ATOM all electron RELATIVISTIC, Point Nuc, A and c f
 N J RN H ZN XION ANUC CLIGHT
 5000   22100.00000000197.36710137 80.00000000  0.00000000  201.970625  0.1370360E+03
  PH   PHI     EPS        DEL        DELRVR
  0.30  0.30     2500.00  0.00001000  0.00001000
 IDIRC  NC1  NDEBU NPRIN  IPUN IRCOR IWCOR
   1   300     0     0     0     0     0
   XALPHA      XLATTER      RNUC
  0.70000000  0.00000000  0.00000000 Point Charge
   XN   XL   XJ      XE          XZ      XDELL
  1.0  0.0  0.5   -2600.000       2.000     0.00000
  2.0  0.0  0.5    -425.000       2.000     0.00000
  2.0  1.0  0.5    -425.000       2.000     0.00000
  2.0  1.0  1.5    -425.000       4.000     0.00000
  3.0  0.0  0.5    -100.000       2.000     0.00000
  3.0  1.0  0.5    -100.000       2.000     0.00000
  3.0  1.0  1.5    -100.000       4.000     0.00000
  3.0  2.0  1.5     -80.000       4.000     0.00000
  3.0  2.0  2.5     -80.000       6.000     0.00000
  4.0  0.0  0.5     -22.000       2.000     0.00000
  4.0  1.0  0.5     -20.000       2.000     0.00000
  4.0  1.0  1.5     -20.000       4.000     0.00000
  4.0  2.0  1.5     -11.000       4.000     0.00000
  4.0  2.0  2.5     -11.000       6.000     0.00000
  5.0  0.0  0.5      -3.000       2.000     0.00000
  5.0  1.0  0.5      -2.200       2.000     0.00000
  5.0  1.0  1.5      -2.200       4.000     0.00000
  4.0  3.0  2.5      -1.000       6.000     0.00000
  4.0  3.0  3.5      -1.000       8.000     0.00000
  5.0  2.0  1.5      -0.500       4.000     0.00000
  5.0  2.0  2.5      -0.500       6.000     0.00000
  6.0  0.0  0.5      -0.200       2.000     0.00000
 ICORP=  0  NPCL=  0  DEMP=0.00  PEPS=0.000000
 R(1)=  0.1000000E-08 D=  0.1005080E+01 RNUC=  0.0000000E+00
 converged at cycle   71  DENSITY AVERAGING    0.0786
  MAXIMUM ERROR IN R.V(R) IS   0.62886379E-05
 Q,EY,EV,EZ,ESUM,ETOT,RHO  0.800000E+02 -0.496572E+03 -0.348382E+05 -0.496228E+05 -0.121443E+05 -0.196607E+05  0.241251E-08


 DIRAC CALCULATION
1                    MERCURY ATOM all electron RELATIVISTIC, Point Nuc, A and c from libtc


 EXCHANGE COEFFICIENT=  0.7000000           TAIL CORRECTION=  0.           NUCLEAR RADIUS=  0.000E+00
0                       ORBITAL    N    L    J     ELECTRONS     EIGENVALUE                DELTA OF EIGENV.

                          1S1/2  1.0  0.0  0.5     2.000       -0.3050991E+04                 0.4924760E-04
                          2S1/2  2.0  0.0  0.5     2.000       -0.5405089E+03                 0.4254074E-04
                          2P1/2  2.0  1.0  0.5     2.000       -0.5187363E+03                 0.4411548E-04
                          2P3/2  2.0  1.0  1.5     4.000       -0.4471398E+03                 0.4301762E-04
                          3S1/2  3.0  0.0  0.5     2.000       -0.1282616E+03                 0.3041592E-04
                          3P1/2  3.0  1.0  0.5     2.000       -0.1184367E+03                 0.3137989E-04
                          3P3/2  3.0  1.0  1.5     4.000       -0.1025748E+03                 0.2995242E-04
                          3D3/2  3.0  2.0  1.5     4.000       -0.8626975E+02                 0.3222472E-04
                          3D5/2  3.0  2.0  2.5     6.000       -0.8286728E+02                 0.3175282E-04
                          4S1/2  4.0  0.0  0.5     2.000       -0.2816781E+02                 0.1668735E-04
                          4P1/2  4.0  1.0  0.5     2.000       -0.2395484E+02                 0.1669817E-04
                          4P3/2  4.0  1.0  1.5     4.000       -0.2011425E+02                 0.1516031E-04
                          4D3/2  4.0  2.0  1.5     4.000       -0.1321824E+02                 0.1506585E-04
                          4D5/2  4.0  2.0  2.5     6.000       -0.1250170E+02                 0.1460097E-04
                          5S1/2  5.0  0.0  0.5     2.000       -0.4322160E+01                 0.4190347E-05
                          5P1/2  5.0  1.0  0.5     2.000       -0.2925196E+01                 0.3615407E-05
                          5P3/2  5.0  1.0  1.5     4.000       -0.2244086E+01                 0.2893507E-05
                          4F5/2  4.0  3.0  2.5     6.000       -0.3611586E+01                 0.1388062E-04
                          4F7/2  4.0  3.0  3.5     8.000       -0.3456598E+01                 0.1362401E-04
                          5D3/2  5.0  2.0  1.5     4.000       -0.3813662E+00                 0.1502810E-05
                          5D5/2  5.0  2.0  2.5     6.000       -0.3130964E+00                 0.1345942E-05
                          6S1/2  6.0  0.0  0.5     2.000       -0.2314499E+00                 0.2838078E-06


                                        NUCLEAR CHARGE=   80.000000
                            INTEGRAL OF CHARGE DENSITY=   80.000000
                           SUM OF THE ORBITAL ENERGIES= -12144.2566
                                          TOTAL ENERGY= -19660.7046
                                        KINETIC ENERGY=  22693.9156
                             NUCLEAR ATTRACTION ENERGY= -49622.7822
                             ELECTRON REPULSION ENERGY=   7640.5911
                                       EXCHANGE ENERGY=   -372.4292

 *******************************************************************************

                             D I R A C   E X I T
 NORMAL TERMINATION



 =================
 Timing Statistics
 =================
  
 Total Used :                     CPU=        1.09      System=        0.07     Elapsed=        1.26

 Calls  Section                     ( Mean, Percentage )
 ---------------------------------------------------------------------------------------------------
[...]
 <Jan01-2013> <11:02:43>    4  ErrMat   0.00365070  MaxEl  0.00072718
 <Jan01-2013> <11:02:57>    5  ErrMat   0.00111870  MaxEl  0.00019774
 <Jan01-2013> <11:03:10>    6  ErrMat   0.00051387  MaxEl -0.00009115
 <Jan01-2013> <11:03:20>    7  ErrMat   0.00017873  MaxEl -0.00002032
 <Jan01-2013> <11:03:33>    8  ErrMat   0.00003722  MaxEl  0.00000638
 <Jan01-2013> <11:03:42>    9  ErrMat   0.00002750  MaxEl -0.00000379
 <Jan01-2013> <11:03:53>   10  ErrMat   0.00000334  MaxEl  0.00000038
 <Jan01-2013> <11:03:58>  SCF converged
 <Jan01-2013> <11:04:04>   11  ErrMat   0.00000110  MaxEl -0.00000015
 <Jan01-2013> <11:04:13>  >>>> TOTEN
 <Jan01-2013> <11:04:23>  >>>> POPAN
 <Jan01-2013> <11:04:24>  >>>> DEBYE
 <Jan01-2013> <11:04:24>  >>>> AMETS
 <Jan01-2013> <11:04:24>  >>>> ENGRAD
  Coordinates in Frequency Displacement 88
    Atom         X           Y           Z   (Angstrom)
    1.Hg        0.367519   -2.389813    1.235440
    2.O         1.867008   -3.409253    0.361359
    3.H         2.028505   -3.671695   -0.800500
    4.H         2.337580   -4.011215    0.967105
    5.O        -1.111880   -1.312007    2.020593
    6.H        -0.856015   -0.378078    2.483071
    7.H        -1.938590   -1.837709    2.456235
    8.O        -3.039461   -2.598124    2.915662
    9.H        -3.198440   -2.728195    3.867238
   10.H        -3.910044   -2.445208    2.506773
   11.O        -0.465210    0.889226    2.969043
   12.H        -0.865916    1.682317    2.570512
   13.H        -0.390700    1.064086    3.923764
   14.O         2.197816   -3.858414   -1.992823
   15.H         2.082943   -4.763256   -2.316993
   16.H         3.030948   -3.505734   -2.363020
 <Jan01-2013> <11:06:30>  >>>> CORORT
 <Jan01-2013> <11:06:30>  >>>> FITINT
 <Jan01-2013> <11:06:33>  >>>> CLSMAT
 <Jan01-2013> <11:06:38>  >>>> ORTHON
 <Jan01-2013> <11:06:39>  >>>> GENPT
 <Jan01-2013> <11:06:39>  Acc.Num.Int.=   6.000
 <Jan01-2013> <11:06:39>  Reusing previous cell geometry for gradient smoothing.
 <Jan01-2013> <11:06:39>  Block Length= 128
 <Jan01-2013> <11:06:41>  >>>> PTBAS
 <Jan01-2013> <11:08:07>  >>>> CYCLE
 <Jan01-2013> <11:08:10>    1
 <Jan01-2013> <11:08:20>    2  ErrMat   0.00035403  MaxEl  0.00009448
 <Jan01-2013> <11:08:28>    3  ErrMat   0.00015890  MaxEl  0.00004483
 <Jan01-2013> <11:08:37>    4  ErrMat   0.00004298  MaxEl -0.00000672
 <Jan01-2013> <11:08:51>    5  ErrMat   0.00003280  MaxEl -0.00000587
 <Jan01-2013> <11:09:01>    6  ErrMat   0.00000624  MaxEl -0.00000087
 <Jan01-2013> <11:09:07>  SCF converged
 <Jan01-2013> <11:09:12>    7  ErrMat   0.00000333  MaxEl  0.00000061
 <Jan01-2013> <11:09:23>  >>>> TOTEN
 <Jan01-2013> <11:09:34>  >>>> POPAN
 <Jan01-2013> <11:09:35>  >>>> DEBYE
 <Jan01-2013> <11:09:35>  >>>> AMETS
 <Jan01-2013> <11:09:36>  >>>> ENGRAD
  Coordinates in Frequency Displacement 89
    Atom         X           Y           Z   (Angstrom)
    1.Hg        0.367519   -2.389813    1.235440
    2.O         1.867008   -3.409253    0.361359
    3.H         2.028505   -3.671695   -0.800500
    4.H         2.337580   -4.011215    0.967105
    5.O        -1.111880   -1.312007    2.020593
    6.H        -0.856015   -0.378078    2.483071
    7.H        -1.938590   -1.837709    2.456235
    8.O        -3.039461   -2.598124    2.915662
    9.H        -3.198440   -2.728195    3.867238
   10.H        -3.910044   -2.445208    2.506773
   11.O        -0.465210    0.889226    2.969043
   12.H        -0.865916    1.682317    2.570512
   13.H        -0.390700    1.064086    3.923764
   14.O         2.197816   -3.858414   -1.992823
   15.H         2.082943   -4.773256   -2.326993
   16.H         3.030948   -3.505734   -2.363020
 <Jan01-2013> <11:11:43>  >>>> CORORT
 <Jan01-2013> <11:11:44>  >>>> FITINT
 <Jan01-2013> <11:11:46>  >>>> CLSMAT
 <Jan01-2013> <11:11:51>  >>>> ORTHON
 <Jan01-2013> <11:11:51>  >>>> GENPT
 <Jan01-2013> <11:11:51>  Acc.Num.Int.=   6.000
 <Jan01-2013> <11:11:51>  Reusing previous cell geometry for gradient smoothing.
 <Jan01-2013> <11:11:52>  Block Length= 128
 <Jan01-2013> <11:11:53>  >>>> PTBAS
 <Jan01-2013> <11:13:21>  >>>> CYCLE
 <Jan01-2013> <11:13:25>    1
 <Jan01-2013> <11:13:37>    2  ErrMat   0.01445072  MaxEl -0.00335945
 <Jan01-2013> <11:13:48>    3  ErrMat   0.00865610  MaxEl -0.00219235
 <Jan01-2013> <11:14:01>    4  ErrMat   0.00753087  MaxEl  0.00096964
 <Jan01-2013> <11:14:14>    5  ErrMat   0.00221664  MaxEl  0.00028722
 <Jan01-2013> <11:14:28>    6  ErrMat   0.00039235  MaxEl -0.00004992
 <Jan01-2013> <11:14:41>    7  ErrMat   0.00015074  MaxEl -0.00001380
 <Jan01-2013> <11:14:56>    8  ErrMat   0.00003656  MaxEl -0.00000477
 <Jan01-2013> <11:15:10>    9  ErrMat   0.00001451  MaxEl  0.00000187
 <Jan01-2013> <11:15:24>   10  ErrMat   0.00000269  MaxEl  0.00000031
 <Jan01-2013> <11:15:34>  SCF converged
 <Jan01-2013> <11:15:40>   11  ErrMat   0.00000103  MaxEl -0.00000012
 <Jan01-2013> <11:15:59>  >>>> TOTEN
 <Jan01-2013> <11:16:16>  >>>> POPAN
 <Jan01-2013> <11:16:16>  >>>> DEBYE
 <Jan01-2013> <11:16:16>  >>>> AMETS
 <Jan01-2013> <11:16:18>  >>>> ENGRAD
  Coordinates in Frequency Displacement 90
    Atom         X           Y           Z   (Angstrom)
    1.Hg        0.367519   -2.389813    1.235440
    2.O         1.867008   -3.409253    0.361359
    3.H         2.028505   -3.671695   -0.800500
    4.H         2.337580   -4.011215    0.967105
    5.O        -1.111880   -1.312007    2.020593
    6.H        -0.856015   -0.378078    2.483071
    7.H        -1.938590   -1.837709    2.456235
    8.O        -3.039461   -2.598124    2.915662
    9.H        -3.198440   -2.728195    3.867238
   10.H        -3.910044   -2.445208    2.506773
   11.O        -0.465210    0.889226    2.969043
   12.H        -0.865916    1.682317    2.570512
   13.H        -0.390700    1.064086    3.923764
   14.O         2.197816   -3.858414   -1.992823
   15.H         2.082943   -4.773256   -2.306993
   16.H         3.030948   -3.505734   -2.363020
 <Jan01-2013> <11:20:42>  >>>> CORORT
 <Jan01-2013> <11:20:42>  >>>> FITINT
 <Jan01-2013> <11:20:46>  >>>> CLSMAT
 <Jan01-2013> <11:20:50>  >>>> ORTHON
 <Jan01-2013> <11:21:06>  >>>> GENPT
 <Jan01-2013> <11:21:06>  Acc.Num.Int.=   6.000
 <Jan01-2013> <11:21:06>  Reusing previous cell geometry for gradient smoothing.
 <Jan01-2013> <11:21:07>  Block Length= 128
 <Jan01-2013> <11:21:10>  >>>> PTBAS
 <Jan01-2013> <11:23:24>  >>>> CYCLE
 <Jan01-2013> <11:23:30>    1
 <Jan01-2013> <11:23:50>    2  ErrMat   0.00006912  MaxEl  0.00001457
 <Jan01-2013> <11:24:06>    3  ErrMat   0.00004280  MaxEl  0.00000977
 <Jan01-2013> <11:24:29>    4  ErrMat   0.00002813  MaxEl  0.00000559
 <Jan01-2013> <11:24:46>    5  ErrMat   0.00000544  MaxEl -0.00000088
 <Jan01-2013> <11:24:58>  SCF converged
 <Jan01-2013> <11:25:07>    6  ErrMat   0.00000302  MaxEl  0.00000044
 <Jan01-2013> <11:25:22>  >>>> TOTEN
 <Jan01-2013> <11:25:39>  >>>> POPAN
 <Jan01-2013> <11:25:39>  >>>> DEBYE
 <Jan01-2013> <11:25:40>  >>>> AMETS
 <Jan01-2013> <11:25:41>  >>>> ENGRAD
  Coordinates in Frequency Displacement 91
    Atom         X           Y           Z   (Angstrom)
    1.Hg        0.367519   -2.389813    1.235440
    2.O         1.867008   -3.409253    0.361359
    3.H         2.028505   -3.671695   -0.800500
    4.H         2.337580   -4.011215    0.967105
    5.O        -1.111880   -1.312007    2.020593
    6.H        -0.856015   -0.378078    2.483071
    7.H        -1.938590   -1.837709    2.456235
    8.O        -3.039461   -2.598124    2.915662
    9.H        -3.198440   -2.728195    3.867238
   10.H        -3.910044   -2.445208    2.506773
   11.O        -0.465210    0.889226    2.969043
   12.H        -0.865916    1.682317    2.570512
   13.H        -0.390700    1.064086    3.923764
   14.O         2.197816   -3.858414   -1.992823
   15.H         2.082943   -4.773256   -2.316993
   16.H         3.020948   -3.505734   -2.363020
 <Jan01-2013> <11:30:29>  >>>> CORORT
 <Jan01-2013> <11:30:29>  >>>> FITINT
 <Jan01-2013> <11:30:33>  >>>> CLSMAT
 <Jan01-2013> <11:30:38>  >>>> ORTHON
 <Jan01-2013> <11:30:40>  >>>> GENPT
 <Jan01-2013> <11:30:40>  Acc.Num.Int.=   6.000
 <Jan01-2013> <11:30:41>  Reusing previous cell geometry for gradient smoothing.
 <Jan01-2013> <11:30:41>  Block Length= 128
 <Jan01-2013> <11:30:43>  >>>> PTBAS
 <Jan01-2013> <11:32:41>  >>>> CYCLE
 <Jan01-2013> <11:32:46>    1
 <Jan01-2013> <11:33:01>    2  ErrMat   0.02006056  MaxEl -0.00502459
 <Jan01-2013> <11:33:17>    3  ErrMat   0.01002877  MaxEl -0.00249384
 <Jan01-2013> <11:33:37>    4  ErrMat   0.00372031  MaxEl  0.00072201
 <Jan01-2013> <11:33:56>    5  ErrMat   0.00100920  MaxEl -0.00013839
 <Jan01-2013> <11:34:15>    6  ErrMat   0.00043403  MaxEl  0.00006006
 <Jan01-2013> <11:34:33>    7  ErrMat   0.00012483  MaxEl -0.00001117
 <Jan01-2013> <11:34:56>    8  ErrMat   0.00003201  MaxEl -0.00000284
 <Jan01-2013> <11:35:17>    9  ErrMat   0.00002099  MaxEl  0.00000272
 <Jan01-2013> <11:35:39>   10  ErrMat   0.00000657  MaxEl -0.00000074
 <Jan01-2013> <11:35:53>  SCF converged
 <Jan01-2013> <11:36:02>   11  ErrMat   0.00000115  MaxEl -0.00000017
 <Jan01-2013> <11:36:21>  >>>> TOTEN
 <Jan01-2013> <11:36:39>  >>>> POPAN
 <Jan01-2013> <11:36:41>  >>>> DEBYE
 <Jan01-2013> <11:36:42>  >>>> AMETS
 <Jan01-2013> <11:36:44>  >>>> ENGRAD
  Coordinates in Frequency Displacement 92
    Atom         X           Y           Z   (Angstrom)
    1.Hg        0.367519   -2.389813    1.235440
    2.O         1.867008   -3.409253    0.361359
    3.H         2.028505   -3.671695   -0.800500
    4.H         2.337580   -4.011215    0.967105
    5.O        -1.111880   -1.312007    2.020593
    6.H        -0.856015   -0.378078    2.483071
    7.H        -1.938590   -1.837709    2.456235
    8.O        -3.039461   -2.598124    2.915662
    9.H        -3.198440   -2.728195    3.867238
   10.H        -3.910044   -2.445208    2.506773
   11.O        -0.465210    0.889226    2.969043
   12.H        -0.865916    1.682317    2.570512
   13.H        -0.390700    1.064086    3.923764
   14.O         2.197816   -3.858414   -1.992823
   15.H         2.082943   -4.773256   -2.316993
   16.H         3.040948   -3.505734   -2.363020
 <Jan01-2013> <11:43:05>  >>>> CORORT
 <Jan01-2013> <11:43:06>  >>>> FITINT
 <Jan01-2013> <11:43:09>  >>>> CLSMAT
 <Jan01-2013> <11:43:13>  >>>> ORTHON
 <Jan01-2013> <11:43:15>  >>>> GENPT
 <Jan01-2013> <11:43:15>  Acc.Num.Int.=   6.000
 <Jan01-2013> <11:43:15>  Reusing previous cell geometry for gradient smoothing.
 <Jan01-2013> <11:43:16>  Block Length= 128
 <Jan01-2013> <11:43:18>  >>>> PTBAS
 <Jan01-2013> <11:45:39>  >>>> CYCLE
 <Jan01-2013> <11:45:44>    1
 <Jan01-2013> <11:45:55>    2  ErrMat   0.00026517  MaxEl -0.00005957
 <Jan01-2013> <11:46:10>    3  ErrMat   0.00012049  MaxEl -0.00002738
 <Jan01-2013> <11:46:24>    4  ErrMat   0.00003512  MaxEl -0.00000570
 <Jan01-2013> <11:46:37>    5  ErrMat   0.00002668  MaxEl -0.00000479
 <Jan01-2013> <11:46:52>    6  ErrMat   0.00000511  MaxEl -0.00000069
 <Jan01-2013> <11:47:01>  SCF converged
 <Jan01-2013> <11:47:07>    7  ErrMat   0.00000282  MaxEl  0.00000051
 <Jan01-2013> <11:47:23>  >>>> TOTEN
 <Jan01-2013> <11:47:35>  >>>> POPAN
 <Jan01-2013> <11:47:36>  >>>> DEBYE
 <Jan01-2013> <11:47:37>  >>>> AMETS
 <Jan01-2013> <11:47:38>  >>>> ENGRAD
  Coordinates in Frequency Displacement 93
    Atom         X           Y           Z   (Angstrom)
    1.Hg        0.367519   -2.389813    1.235440
    2.O         1.867008   -3.409253    0.361359
    3.H         2.028505   -3.671695   -0.800500
    4.H         2.337580   -4.011215    0.967105
    5.O        -1.111880   -1.312007    2.020593
    6.H        -0.856015   -0.378078    2.483071
    7.H        -1.938590   -1.837709    2.456235
    8.O        -3.039461   -2.598124    2.915662
    9.H        -3.198440   -2.728195    3.867238
   10.H        -3.910044   -2.445208    2.506773
   11.O        -0.465210    0.889226    2.969043
   12.H        -0.865916    1.682317    2.570512
   13.H        -0.390700    1.064086    3.923764
   14.O         2.197816   -3.858414   -1.992823
   15.H         2.082943   -4.773256   -2.316993
   16.H         3.030948   -3.515734   -2.363020
 <Jan01-2013> <11:49:43>  >>>> CORORT
 <Jan01-2013> <11:49:44>  >>>> FITINT
 <Jan01-2013> <11:49:47>  >>>> CLSMAT
 <Jan01-2013> <11:49:51>  >>>> ORTHON
 <Jan01-2013> <11:49:53>  >>>> GENPT
 <Jan01-2013> <11:49:53>  Acc.Num.Int.=   6.000
 <Jan01-2013> <11:49:54>  Reusing previous cell geometry for gradient smoothing.
 <Jan01-2013> <11:49:54>  Block Length= 128
 <Jan01-2013> <11:49:56>  >>>> PTBAS
 <Jan01-2013> <11:51:34>  >>>> CYCLE
 <Jan01-2013> <11:51:39>    1
 <Jan01-2013> <11:51:50>    2  ErrMat   0.01329774  MaxEl -0.00290966
 <Jan01-2013> <11:52:09>    3  ErrMat   0.00852311  MaxEl -0.00193204
 <Jan01-2013> <11:52:24>    4  ErrMat   0.00537778  MaxEl  0.00115568
 <Jan01-2013> <11:52:41>    5  ErrMat   0.00092730  MaxEl -0.00015420
 <Jan01-2013> <11:52:55>    6  ErrMat   0.00047901  MaxEl  0.00006371
 <Jan01-2013> <11:53:08>    7  ErrMat   0.00013606  MaxEl  0.00002029
 <Jan01-2013> <11:53:20>    8  ErrMat   0.00004537  MaxEl -0.00000701
 <Jan01-2013> <11:53:34>    9  ErrMat   0.00001287  MaxEl  0.00000120
 <Jan01-2013> <11:53:48>   10  ErrMat   0.00000233  MaxEl -0.00000027
 <Jan01-2013> <11:53:57>  SCF converged
 <Jan01-2013> <11:54:02>   11  ErrMat   0.00000060  MaxEl -0.00000007
 <Jan01-2013> <11:54:14>  >>>> TOTEN
 <Jan01-2013> <11:54:25>  >>>> POPAN
 <Jan01-2013> <11:54:26>  >>>> DEBYE
 <Jan01-2013> <11:54:27>  >>>> AMETS
 <Jan01-2013> <11:54:27>  >>>> ENGRAD
  Coordinates in Frequency Displacement 94
    Atom         X           Y           Z   (Angstrom)
    1.Hg        0.367519   -2.389813    1.235440
    2.O         1.867008   -3.409253    0.361359
    3.H         2.028505   -3.671695   -0.800500
    4.H         2.337580   -4.011215    0.967105
    5.O        -1.111880   -1.312007    2.020593
    6.H        -0.856015   -0.378078    2.483071
    7.H        -1.938590   -1.837709    2.456235
    8.O        -3.039461   -2.598124    2.915662
    9.H        -3.198440   -2.728195    3.867238
   10.H        -3.910044   -2.445208    2.506773
   11.O        -0.465210    0.889226    2.969043
   12.H        -0.865916    1.682317    2.570512
   13.H        -0.390700    1.064086    3.923764
   14.O         2.197816   -3.858414   -1.992823
   15.H         2.082943   -4.773256   -2.316993
   16.H         3.030948   -3.495734   -2.363020
 <Jan01-2013> <11:56:45>  >>>> CORORT
 <Jan01-2013> <11:56:45>  >>>> FITINT
 <Jan01-2013> <11:56:48>  >>>> CLSMAT
 <Jan01-2013> <11:56:53>  >>>> ORTHON
 <Jan01-2013> <11:56:55>  >>>> GENPT
 <Jan01-2013> <11:56:55>  Acc.Num.Int.=   6.000
 <Jan01-2013> <11:56:55>  Reusing previous cell geometry for gradient smoothing.
 <Jan01-2013> <11:56:56>  Block Length= 128
 <Jan01-2013> <11:56:58>  >>>> PTBAS
 <Jan01-2013> <11:58:27>  >>>> CYCLE
 <Jan01-2013> <11:58:32>    1
 <Jan01-2013> <11:58:43>    2  ErrMat   0.00007562  MaxEl -0.00001183
 <Jan01-2013> <11:58:54>    3  ErrMat   0.00004584  MaxEl -0.00000813
 <Jan01-2013> <11:59:06>    4  ErrMat   0.00002880  MaxEl  0.00000615
 <Jan01-2013> <11:59:17>    5  ErrMat   0.00000564  MaxEl -0.00000105
 <Jan01-2013> <11:59:29>    6  ErrMat   0.00000303  MaxEl  0.00000048
 <Jan01-2013> <11:59:39>  SCF converged
 <Jan01-2013> <11:59:45>    7  ErrMat   0.00000086  MaxEl  0.00000015
 <Jan01-2013> <11:59:58>  >>>> TOTEN
 <Jan01-2013> <12:00:10>  >>>> POPAN
 <Jan01-2013> <12:00:10>  >>>> DEBYE
 <Jan01-2013> <12:00:11>  >>>> AMETS
 <Jan01-2013> <12:00:12>  >>>> ENGRAD
  Coordinates in Frequency Displacement 95
    Atom         X           Y           Z   (Angstrom)
    1.Hg        0.367519   -2.389813    1.235440
    2.O         1.867008   -3.409253    0.361359
    3.H         2.028505   -3.671695   -0.800500
    4.H         2.337580   -4.011215    0.967105
    5.O        -1.111880   -1.312007    2.020593
    6.H        -0.856015   -0.378078    2.483071
    7.H        -1.938590   -1.837709    2.456235
    8.O        -3.039461   -2.598124    2.915662
    9.H        -3.198440   -2.728195    3.867238
   10.H        -3.910044   -2.445208    2.506773
   11.O        -0.465210    0.889226    2.969043
   12.H        -0.865916    1.682317    2.570512
   13.H        -0.390700    1.064086    3.923764
   14.O         2.197816   -3.858414   -1.992823
   15.H         2.082943   -4.773256   -2.316993
   16.H         3.030948   -3.505734   -2.373020
 <Jan01-2013> <12:02:22>  >>>> CORORT
 <Jan01-2013> <12:02:22>  >>>> FITINT
 <Jan01-2013> <12:02:26>  >>>> CLSMAT
 <Jan01-2013> <12:02:30>  >>>> ORTHON
 <Jan01-2013> <12:02:31>  >>>> GENPT
 <Jan01-2013> <12:02:31>  Acc.Num.Int.=   6.000
 <Jan01-2013> <12:02:31>  Reusing previous cell geometry for gradient smoothing.
 <Jan01-2013> <12:02:32>  Block Length= 128
 <Jan01-2013> <12:02:33>  >>>> PTBAS
 <Jan01-2013> <12:04:03>  >>>> CYCLE
 <Jan01-2013> <12:04:08>    1
 <Jan01-2013> <12:04:18>    2  ErrMat   0.01491469  MaxEl -0.00333870
 <Jan01-2013> <12:04:30>    3  ErrMat   0.00876317  MaxEl -0.00217363
 <Jan01-2013> <12:04:41>    4  ErrMat   0.00744629  MaxEl  0.00097095
 <Jan01-2013> <12:04:53>    5  ErrMat   0.00238279  MaxEl  0.00030962
 <Jan01-2013> <12:05:05>    6  ErrMat   0.00038565  MaxEl -0.00004717
 <Jan01-2013> <12:05:16>    7  ErrMat   0.00016192  MaxEl -0.00001488
 <Jan01-2013> <12:05:29>    8  ErrMat   0.00003688  MaxEl -0.00000474
 <Jan01-2013> <12:05:39>    9  ErrMat   0.00001500  MaxEl  0.00000192
 <Jan01-2013> <12:05:52>   10  ErrMat   0.00000272  MaxEl  0.00000030
 <Jan01-2013> <12:06:02>  SCF converged
 <Jan01-2013> <12:06:08>   11  ErrMat   0.00000099  MaxEl -0.00000013
 <Jan01-2013> <12:06:35>  >>>> TOTEN
 <Jan01-2013> <12:06:48>  >>>> POPAN
 <Jan01-2013> <12:06:48>  >>>> DEBYE
 <Jan01-2013> <12:06:48>  >>>> AMETS
 <Jan01-2013> <12:06:51>  >>>> ENGRAD
  Coordinates in Frequency Displacement 96
    Atom         X           Y           Z   (Angstrom)
    1.Hg        0.367519   -2.389813    1.235440
    2.O         1.867008   -3.409253    0.361359
    3.H         2.028505   -3.671695   -0.800500
    4.H         2.337580   -4.011215    0.967105
    5.O        -1.111880   -1.312007    2.020593
    6.H        -0.856015   -0.378078    2.483071
    7.H        -1.938590   -1.837709    2.456235
    8.O        -3.039461   -2.598124    2.915662
    9.H        -3.198440   -2.728195    3.867238
   10.H        -3.910044   -2.445208    2.506773
   11.O        -0.465210    0.889226    2.969043
   12.H        -0.865916    1.682317    2.570512
   13.H        -0.390700    1.064086    3.923764
   14.O         2.197816   -3.858414   -1.992823
   15.H         2.082943   -4.773256   -2.316993
   16.H         3.030948   -3.505734   -2.353020
 <Jan01-2013> <12:09:06>  >>>> CORORT
 <Jan01-2013> <12:09:06>  >>>> FITINT
 <Jan01-2013> <12:09:09>  >>>> CLSMAT
 <Jan01-2013> <12:09:14>  >>>> ORTHON
 <Jan01-2013> <12:09:14>  >>>> GENPT
 <Jan01-2013> <12:09:15>  Acc.Num.Int.=   6.000
 <Jan01-2013> <12:09:15>  Reusing previous cell geometry for gradient smoothing.
 <Jan01-2013> <12:09:15>  Block Length= 128
 <Jan01-2013> <12:09:17>  >>>> PTBAS
 <Jan01-2013> <12:11:03>  >>>> CYCLE
 <Jan01-2013> <12:11:09>    1
 <Jan01-2013> <12:11:25>    2  ErrMat   0.00008558  MaxEl  0.00001700
 <Jan01-2013> <12:11:43>    3  ErrMat   0.00005065  MaxEl  0.00001135
 <Jan01-2013> <12:12:01>    4  ErrMat   0.00003082  MaxEl -0.00000574
 <Jan01-2013> <12:12:17>    5  ErrMat   0.00000712  MaxEl -0.00000118
 <Jan01-2013> <12:12:38>    6  ErrMat   0.00000309  MaxEl  0.00000045
 <Jan01-2013> <12:12:50>  SCF converged
 <Jan01-2013> <12:12:57>    7  ErrMat   0.00000091  MaxEl  0.00000015
 <Jan01-2013> <12:13:11>  >>>> TOTEN
 <Jan01-2013> <12:13:26>  >>>> POPAN
 <Jan01-2013> <12:13:27>  >>>> DEBYE
 <Jan01-2013> <12:13:27>  >>>> AMETS
 <Jan01-2013> <12:13:28>  >>>> ENGRAD
 <Jan01-2013> <12:17:56>  Force Constants computed
 <Jan01-2013> <12:17:56>  NORMAL TERMINATION
 <Jan01-2013> <12:17:56>  END
 <Jan01-2013> <12:17:56>  Total Bonding Energy: -42.71015890 a.u.
