
 *******************************************************************************
 *                                                                             *
 *  -------------------------------------                                      *
 *   Amsterdam Density Functional  (ADF)         2013.01   April 2, 2013       *
 *  -------------------------------------                                      *
 *                                               Build 201304112106            *
 *                                                                             *
 *                                                                             *
 *                            =====================                            *
 *                            |                   |                            *
 *                            |     D I R A C     |                            *
 *                            |                   |                            *
 *                            =====================                            *
 *                                                                             *
 *                                                                             *
 *   Online information and documentation:  http://www.scm.com                 *
 *   E-mail:  support@scm.com   info@scm.com                                   *
 *                                                                             *
 *   Scientific publications using ADF results must be properly referenced     *
 *   See the User Manuals (or the web site) for recommended citations          *
 *   The terms and conditions of the End User License Agreement apply to       *
 *   the use of ADF, http://www.scm.com/Sales/LicAgreement.html                *
 *                                                                             *
 ****************************  x86_64_linux_intel  *****************************
 
 Licensed to: Prof. Cacier Hadad / University of Antioquia / Medellin / COLOMBIA
 SCM User ID: u15319
  
 DIRAC 2013.01  RunTime: Jan01-2013 00:00:00  Nodes: 1  Procs: 1

 Temporary files are created in /tmp/kid_0.a9HmBH

1
 HYDROGEN ATOM RELATIVISTIC, Point Nuc, A and c from libtc   
 N J RN H ZN XION ANUC CLIGHT
 5000    1100.00000000197.36710137  1.00000000  0.00000000    1.007825  0.1370360E+03
  PH   PHI     EPS        DEL        DELRVR
  0.30  0.30     2500.00  0.00001000  0.00001000
 IDIRC  NC1  NDEBU NPRIN  IPUN IRCOR IWCOR
   1   300     0     0     0     0     0
   XALPHA      XLATTER      RNUC
  0.70000000  0.00000000  0.00000000 Point Charge
   XN   XL   XJ      XE          XZ      XDELL
  1.0  0.0  0.5      -1.000       1.000     0.00000
 ICORP=  0  NPCL=  0  DEMP=0.00  PEPS=0.000000
 R(1)=  0.1000000E-08 D=  0.1005080E+01 RNUC=  0.0000000E+00
 converged at cycle   32  DENSITY AVERAGING    0.2400
  MAXIMUM ERROR IN R.V(R) IS   0.79874357E-05
 Q,EY,EV,EZ,ESUM,ETOT,RHO  0.100000E+01 -0.266614E+00 -0.619969E+00 -0.910779E+00 -0.203940E+00 -0.415998E+00  0.337036E-17


 DIRAC CALCULATION
1                    HYDROGEN ATOM RELATIVISTIC, Point Nuc, A and c from libtc


 EXCHANGE COEFFICIENT=  0.7000000           TAIL CORRECTION=  0.           NUCLEAR RADIUS=  0.000E+00
0                       ORBITAL    N    L    J     ELECTRONS     EIGENVALUE                DELTA OF EIGENV.

                          1S1/2  1.0  0.0  0.5     1.000       -0.2039397E+00                 0.2720093E-06


                                        NUCLEAR CHARGE=    1.000000
                            INTEGRAL OF CHARGE DENSITY=    1.000000
                           SUM OF THE ORBITAL ENERGIES=     -0.2039
                                          TOTAL ENERGY=     -0.4160
                                        KINETIC ENERGY=      0.4160
                             NUCLEAR ATTRACTION ENERGY=     -0.9108
                             ELECTRON REPULSION ENERGY=      0.2787
                                       EXCHANGE ENERGY=     -0.2000

 *******************************************************************************

                             D I R A C   E X I T
 NORMAL TERMINATION



 =================
 Timing Statistics
 =================
  
 Total Used :                     CPU=        0.11      System=        0.02     Elapsed=        0.27

 Calls  Section                     ( Mean, Percentage )
 ---------------------------------------------------------------------------------------------------
     2  ><      ................      0.00    0.00             0.00    0.05             0.00    0.00
     1  EXIT PROCEDURE .........      0.11  100.00             0.02   99.95             0.27  100.00


 Currently Open Files (EXIT00)
 ====================

 Unit    Access Format  Status   Type       Ident (file)
 -------------------------------------------------------
   3      SEQ    FORM   TRANSP  NORMAL      LOGFILE
                                          ( logfile )


 Buffered I/O statistics
 =======================
 Memory available:                     67108864
 Number of records fitting in memory:     16131
 Input : 100.0% of                            0  *4k bytes
 Output: 100.0% of                            0  *4k bytes
 Records from serial files evicted:           0
                    others evicted:           0
 Hash table lookups:          0 with          0 conflicts (100.00%)
(INPUT FILE)
Create H   file=/home/andyzapa/adf2013.01/atomicdata/ZORA/QZ4P/H
XC
GGA PBE
End
relativistic ZORA
Corepotentials t12.rel
End Input

 *******************************************************************************
 *                                                                             *
 *  -------------------------------------                                      *
 *   Amsterdam Density Functional  (ADF)         2013.01   April 2, 2013       *
 *  -------------------------------------                                      *
 *                                               Build 201304112215            *
 *                                                                             *
 *                                                                             *
 *                              =================                              *
 *                              |               |                              *
 *                              |     A D F     |                              *
 *                              |               |                              *
 *                              =================                              *
 *                                                                             *
 *                                                                             *
 *   Online information and documentation:  http://www.scm.com                 *
 *   E-mail:  support@scm.com   info@scm.com                                   *
 *                                                                             *
 *   Scientific publications using ADF results must be properly referenced     *
 *   See the User Manuals (or the web site) for recommended citations          *
 *   The terms and conditions of the End User License Agreement apply to       *
 *   the use of ADF, http://www.scm.com/Sales/LicAgreement.html                *
 *                                                                             *
 ********************  x86_64_linux_intel / platform_mpi  **********************
 
 Licensed to: Prof. Cacier Hadad / University of Antioquia / Medellin / COLOMBIA
 SCM User ID: u15319
  
 ADF 2013.01  RunTime: Jan01-2013 00:00:00  Nodes: 1  Procs: 1

 Temporary files are created in /tmp/kid_0.dkZtu4

 Hydrogen (QZ, all electron, 5S 2P 2D)



 ===========================
 A T T A C H E D   F I L E S
 ===========================
  
 CREATE - Data File:    /home/andyzapa/adf2013.01/atomicdata/ZORA/QZ4P/H
                        Hydrogen (QZ, all electron, 5S 2P 2D)
 Core Potentials:
         file : t12.rel



 ===============================
 M O D E L   P A R A M E T E R S
 ===============================
  
 DENSITY FUNCTIONAL POTENTIAL (scf)
    LDA:                               PW92                                    == Not Default ==
    Gradient Corrections:              PBEc PBEx                               == Not Default ==

 SPIN  (restricted / unrestr.)
    Molecule:                          Restricted                               

 OTHER ASPECTS
    Relativistic Corrections:          scalar (ZORA,SAPA)                      == Not Default ==

    Nuclear Charge Density Model:      Point Charge Nuclei                                                                                                                                                                                     
    Core Treatment:                    Frozen Orbital(s)                        

    Hyperfine or Zeeman Interaction:   ---                                      



 =====================================
 S Y M M E T R Y ,   E L E C T R O N S
 =====================================
  
 Symmetry: ATOM

 Irreducible Representations, including subspecies
 -------------------------------------------------
 S
 P:x  P:y  P:z
 D:z2  D:x2-y2  D:xy  D:xz  D:yz
 F:z3  F:z  F:xyz  F:z2x  F:z2y  F:x  F:y


 Configuration of Valence Electrons
 ==================================

          Occupation Numbers
          -------------------------------------------------
 S        1
 P        0
 D        0
 F        0
          -------------------------------------------------

 Total:   1

 Net Charge: 0 (Nuclei minus Electrons)

 Preset values for MO occupations will be applied through SCF cycle no. 1000000
 Thereafter, the program will assign electrons to MOs that are spatially
 similar to the occupied MOs in a "reference" cycle ("KeepOrbitals").
 The reference cycle is always the PREVIOUS cycle: it will evolve with
 the SCF procedure.



 ================================
 (Slater-type)  F U N C T I O N S  ***  (Basis and Fit)  ***
 ================================
  

 Atom Type    1  (H)
 ==============

 Valence Basis Sets:   9
 -----------------------
   1 S    3.300000
   1 S    2.000000
   1 S    1.400000
   1 S    1.000000
   1 S    0.710000
   2 P    2.000000
   2 P    1.000000
   3 D    2.500000
   3 D    1.500000

 Charge Fitting Sets (for the computation of the Coulomb Potential):  22
 -----------------------------------------------------------------------
   1 S    6.600000
   1 S    4.620000
   1 S    3.230000
   1 S    2.260000
   1 S    1.580000
   1 S    1.100000
   1 S    0.770000
   2 S    1.000000
   2 P    5.300000
   2 P    3.870000
   2 P    2.820000
   2 P    2.060000
   2 P    1.500000
   3 D    5.800000
   3 D    4.070000
   3 D    2.850000
   3 D    2.000000
   4 F    4.500000
   4 F    3.350000
   4 F    2.500000
   5 G    5.000000
   5 G    3.000000


 BAS: List of all Elementary Cartesian Basis Functions
 =====================================================

 The numbering in the list below (to the right of the function characteristics) is referred
 to in print-outs of MO eigenvectors and Mulliken populations in the BAS representation
 (as contrasted to the SFO representation).

 Notes:
 1. The functions are characterized by a polynomial prefactor (powers of x,y,z and r) and
    an exponential decay factor alpha.
 2. Since the basis sets are specific for an atom TYPE, the individual functions occur on
    all atoms of that type.
 3. The word 'Core' in the left margin signals that it is a Core Function (CF) : not a
    degree of freedom in the valence set, but only used to ensure orthogonalization of
    the other valence basis functions on the frozen Core Orbitals.


 (power of) X  Y  Z  R     Alpha  on Atom
            ==========     =====     ==========

 H                                    1
                                  ---------------------------------------------------------------------------
            0  0  0  0     3.300      1
            0  0  0  0     2.000      2
            0  0  0  0     1.400      3
            0  0  0  0     1.000      4
            0  0  0  0     0.710      5
            1  0  0  0     2.000      6
            0  1  0  0     2.000      7
            0  0  1  0     2.000      8
            1  0  0  0     1.000      9
            0  1  0  0     1.000     10
            0  0  1  0     1.000     11
            2  0  0  0     2.500     12
            1  1  0  0     2.500     13
            1  0  1  0     2.500     14
            0  2  0  0     2.500     15
            0  1  1  0     2.500     16
            0  0  2  0     2.500     17
            2  0  0  0     1.500     18
            1  1  0  0     1.500     19
            1  0  1  0     1.500     20
            0  2  0  0     1.500     21
            0  1  1  0     1.500     22
            0  0  2  0     1.500     23

 Total number of charge fitting functions (nprimf)       107
 Total number of Cartesian basis functions (naos)         23
 Total number of Cartesian core functions  (ncos)          0



 BAS: List of all Elementary Cartesian Basis Functions
 =====================================================

 The numbering in the list below (to the right of the function characteristics) is referred
 to in print-outs of MO eigenvectors and Mulliken populations in the BAS representation
 (as contrasted to the SFO representation).

 Notes:
 1. The functions are characterized by a polynomial prefactor (powers of x,y,z and r) and
    an exponential decay factor alpha.
 2. Since the basis sets are specific for an atom TYPE, the individual functions occur on
    all atoms of that type.
 3. The word 'Core' in the left margin signals that it is a Core Function (CF) : not a
    degree of freedom in the valence set, but only used to ensure orthogonalization of
    the other valence basis functions on the frozen Core Orbitals.


 (power of) X  Y  Z  R     Alpha  on Atom
            ==========     =====     ==========

 H                                    1
                                  ---------------------------------------------------------------------------
            0  0  0  0     3.300      1
            0  0  0  0     2.000      2
            0  0  0  0     1.400      3
            0  0  0  0     1.000      4
            0  0  0  0     0.710      5
            1  0  0  0     2.000      6
            0  1  0  0     2.000      7
            0  0  1  0     2.000      8
            1  0  0  0     1.000      9
            0  1  0  0     1.000     10
            0  0  1  0     1.000     11
            2  0  0  0     2.500     12
            1  1  0  0     2.500     13
            1  0  1  0     2.500     14
            0  2  0  0     2.500     15
            0  1  1  0     2.500     16
            0  0  2  0     2.500     17
            2  0  0  0     1.500     18
            1  1  0  0     1.500     19
            1  0  1  0     1.500     20
            0  2  0  0     1.500     21
            0  1  1  0     1.500     22
            0  0  2  0     1.500     23
1
 ***************************************************************************************************



                                              ***********************
                                              *  T E C H N I C A L  *
                                              ***********************
  



 =============================================================
 P A R A L L E L I Z A T I O N  and  V E C T O R I Z A T I O N
 =============================================================
  
 Nr of parallel processes:                                1
 Maximum vector length in NumInt loops:                 128



 ===============
 I O  vs.  C P U  ***  (store numerical data on disk or recalculate)  ***
 ===============
  
 Basis functions:   recalculate when needed
 Fit functions:     recalculate when needed

 IO buffersize (Mb):                                     64.000000



 =====================
 S C F   U P D A T E S
 =====================
  
 Max. nr. of cycles:                               100
 Convergence criterion:                              0.0000000100
   secondary criterion:                              0.0000000100

 Mix parameter (when DIIS does not apply):           0.2000000000
 Special mix parameter for the first cycle:          1.0000000000


 DIIS (Direct Inversion in Iteration Space)
    Replace damping when SCF Error is below:         0.5000000000
    Apply anyway after SCF cycle:
                                                     5
    (Max.) nr. of expansion vectors:                10

    Upperbound on expansion coefficients:            5.0000000000
    (when exceeded, IterationSpace is re-built)
    2nd Upperbound on coefficients:                 25.0000000000
    (when exceeded, simple damping will be used)
 Automatic ElectronSmearing (in case of problematic SCF convergence) disabled



 =================
 P R E C I S I O N  ***  (General: NumInt, NeglectFunctionTails, ...)  ***
 =================
  

 NumInt:           Target precision:                10.0000000000
 -------           Initial precision:               10.0000000000
                   Min. precision (optimization):   10.0000000000

 Neglect Functions:          Basis functions:        0.1000000000E-11
 ------------------          Fit functions:          0.1000000000E-11



 ===========================
 L I N E A R   S C A L I N G
 ===========================
  

 Cut-off radii density fit:                        0.1000000000E-13
 Overlap cut-off criterion AO matrix elements:     0.1000000000E-11
 Cut-offs for Coulomb potential and fitted density:0.1000000000E-13
 Cut-off criterion for Coulomb multipole terms:    0.1000000000E-13
 Progressive Convergence parameter:                 0.000000000    
1
 ***************************************************************************************************



                                            ***************************
                                            *  C O M P U T A T I O N  *
                                            ***************************
  

 Number of elements of the density matrix on this node (used, total):       276       276



 ====================================================
 Numerical Integration : Voronoi Polyhedra (Te Velde)
 ====================================================
  
 General Accuracy Parameter :                         10.00

 Symmetry used in the points section:  ATOM  


 Summary of the Symmetry Unique Points:
 --------------------------------------
    Nr. of used Symmetry Operators                     1

    Points in the Atomic Spheres                      44
    Points in the Atomic Polyhedra                     0
    Points in the Outer Region                         0
    ----------------------------------------------------
    Total                                             44

    Sum of Weights                                 33854.777883

 Total nr. of points:         44
 Nr. of blocks:                1
 Block length:                44
 Nr. of dummy points:          0


 Test of Precision of the Numerical Integration Grid
 ===================================================

 Integral of the Total Core Density:                   0.00000000000000



 =====
 S C F
 =====
  

 CYCLE    1
 orbitals (Q,E):
 ---------------
 S :1...5            ( 1.00    -0.5000)  ( 0.00    -0.1102)  ( 0.00     0.2912)  ( 0.00     2.1458)
                     ( 0.00    15.1140)
 P :1...2            ( 0.00    -0.0467)  ( 0.00     1.6698)
 D :1...2            ( 0.00     0.4090)  ( 0.00     3.3827)

 CYCLE    2
 d-Pmat  mean:  0.40E-01
 imax=      4: -0.73E+00
 orbitals (Q,E):
 ---------------
 S :1...2            ( 1.00    -0.2213)  ( 0.00     0.0617)
 P :1...1            ( 0.00     0.1820)
 D :1...1            ( 0.00     0.6395)

 CYCLE    3
 d-Pmat  mean:  0.48E-02
 imax=      4:  0.66E-01
 orbitals (Q,E):
 ---------------
 S :1...2            ( 1.00    -0.2392)  ( 0.00     0.0523)
 P :1...1            ( 0.00     0.1713)
 D :1...1            ( 0.00     0.6290)

 CYCLE    4
 d-Pmat  mean:  0.47E-03
 imax=      4: -0.74E-02
 orbitals (Q,E):
 ---------------
 S :1...2            ( 1.00    -0.2386)  ( 0.00     0.0522)
 P :1...1            ( 0.00     0.1716)
 D :1...1            ( 0.00     0.6293)

 CYCLE    5
 d-Pmat  mean:  0.13E-04
 imax=      4:  0.20E-03
 orbitals (Q,E):
 ---------------
 S :1...2            ( 1.00    -0.2386)  ( 0.00     0.0522)
 P :1...1            ( 0.00     0.1716)
 D :1...1            ( 0.00     0.6293)

 CYCLE    6
 d-Pmat  mean:  0.14E-06
 imax=      4:  0.26E-05
 orbitals (Q,E):
 ---------------
 S :1...2            ( 1.00    -0.2386)  ( 0.00     0.0522)
 P :1...1            ( 0.00     0.1716)
 D :1...1            ( 0.00     0.6293)

 CYCLE    7
 d-Pmat  mean:  0.24E-08
 imax=      4:  0.39E-07
 orbitals (Q,E):
 ---------------
 S :1...2            ( 1.00    -0.2386)  ( 0.00     0.0522)
 P :1...1            ( 0.00     0.1716)
 D :1...1            ( 0.00     0.6293)

 SCF CONVERGED

 CYCLE    8
1
 ***************************************************************************************************



                                                *******************
                                                *  R E S U L T S  *
                                                *******************
  
 *** Setting up for NEW gradients in focky
 *** Using FIT density in focky

 Scaled ZORA Orbital Energies, per Irrep and Spin:
 =================================================
                        Occup              E (au)              E (eV)       Diff (eV) with prev. cycle
                        -----      --------------------        ------       --------------------------
 S
               1        1.000     -0.23860414448779E+00        -6.493              -2.14E-10
               2        0.000      0.52240780773202E-01         1.422
               3        0.000      0.50128711414796E+00        13.641
               4        0.000      0.23892611828176E+01        65.015
               5        0.000      0.15295018626305E+02       416.199
 P
               1        0.000      0.17156247999750E+00         4.668
               2        0.000      0.19364620405874E+01        52.694
 D
               1        0.000      0.62928666110105E+00        17.124
               2        0.000      0.36544214463356E+01        99.442


 Partially Occupied:
               1 S                -0.23860414448779E+00
  
 LUMO :        2 S                 0.52240780773202E-01
  


 Orbital Energies, all Irreps
 ========================================

 Irrep        no.  (spin)   Occup              E (au)                E (eV)
 ---------------------------------------------------------------------------
 S             1             1.00       -0.23860414448779E+00        -6.4927
 S             2             0.00        0.52240780773202E-01         1.4215
 P             1             0.00        0.17156247999750E+00         4.6685
 S             3             0.00        0.50128711414796E+00        13.6407
 D             1             0.00        0.62928666110105E+00        17.1238
 P             2             0.00        0.19364620405874E+01        52.6938
 S             4             0.00        0.23892611828176E+01        65.0151
 D             2             0.00        0.36544214463356E+01        99.4419
 S             5             0.00        0.15295018626305E+02       416.1986


 All Electron Calculation, thus no Orbital Energies of the Core Orbitals are calculated



 =======================================
 M U L L I K E N   P O P U L A T I O N S
 =======================================
  
 The survey below gives for each atom:
 a) the total charge (Z minus electrons)
 b) the net spin polarization (nr of electrons spin-A minus spin-B)
 c) for each spin the atomic electron valence density (integrated) per L-value.

 Atom              Charge    Spin density          S         P         D         F
 ----              ------    ------------       ------    ------    ------    ------
 1 H               0.0000                       1.0000    0.0000    0.0000    0.0000

 Populations of individual BAS functions
 ----------------------------------------
 1 H           -0.0037  0.0405  0.0399  0.5670  0.3563  0.0000  0.0000  0.0000  0.0000  0.0000
                0.0000  0.0000  0.0000  0.0000  0.0000  0.0000  0.0000  0.0000  0.0000  0.0000
                0.0000  0.0000  0.0000

 Gross Charges per Atom (Z minus electrons)
 ==========================================
             0.0000
 Net Total:  0.00000000


 Atom-Atom Population Matrix (off-diagonal elements not doubled)
 ===============================================================

     1 :     1.0000



 =============
 Dipole Moment  ***  (Debye)  ***
 =============
  
 Vector   :         0.00000000      0.00000000      0.00000000
 Magnitude:         0.00000000

 This molecular dipole moment is calculated with analytic integration



 =========================================
 Quadrupole Moment (Buckingham convention)  ***  (a.u.)  ***
 =========================================
  
      quad-xx        quad-xy        quad-xz        quad-yy        quad-yz        quad-zz
      0.00000000     0.00000000     0.00000000     0.00000000     0.00000000     0.00000000

 This molecular quadrupole moment is calculated with analytic integration



 ===============================================================================
 Electrostatic potential at the Nuclei due to valence electrons and other nuclei
 ===============================================================================
  
         Atom                  Potential
         ----                  ---------
     1)   H                   0.94463948
 
 
 ========================
 No memory problems found
 ========================
 
 Maximum number of active allocate calls:         378
 
 *******************************************************************************

                             A D F   E X I T
 NORMAL TERMINATION



 =================
 Timing Statistics
 =================
  
 Total Used :                     CPU=        0.23      System=        0.05     Elapsed=        1.00

 Calls  Section                     ( Mean, Percentage )
 ---------------------------------------------------------------------------------------------------
     3  ><      ................      0.00    0.00             0.00    2.93             0.00    1.33
     1  INIT    ................      0.01    4.54             0.01   11.01             0.11   10.75
     1  GEOMET  ................      0.01    3.89             0.02   39.73             0.17   16.69
     1  INPUTA  ................      0.00    0.60             0.00    2.50             0.00    0.35
     1  MAINSY  ................      0.01    3.29             0.00    4.84             0.07    7.44
     1  SYMFIT  ................      0.00    0.19             0.00    0.00             0.00    0.04
     1  CORORT  ................      0.00    0.21             0.00    0.00             0.01    0.60
     1  SYMORB  ................      0.00    0.47             0.00    0.00             0.00    0.11
     1  FITINT  ................      0.01    2.57             0.00    1.98             0.01    1.40
     1  CLSMAT  ................      0.00    0.11             0.00    0.58             0.01    0.82
     1  ORTHON  ................      0.00    0.47             0.00    2.37             0.01    0.84
     1  GENPT   ................      0.01    3.15             0.00    4.51             0.07    7.40
     1  PTBAS   ................      0.00    1.35             0.00    0.00             0.01    1.09
     8  FOCKY   ................      0.01   46.83             0.00   11.05             0.03   20.61
     8  FOCKTR  ................      0.00    1.39             0.00    0.19             0.00    0.33
     8  FOCKNM  ................      0.00    0.18             0.00    0.02             0.00    0.04
     8  SDIIS   ................      0.00    2.10             0.00    0.33             0.01   11.98
     8  EMERGE  ................      0.00   12.57             0.00    5.53             0.01   11.41
     1  COREPS  ................      0.00    1.04             0.00    3.90             0.01    0.74
     1  POPAN   ................      0.00    1.34             0.00    0.34             0.01    0.85
     1  DEBYE   ................      0.00    0.25             0.00    0.33             0.01    0.62
     1  QMPOT   ................      0.00    0.04             0.00    6.41             0.00    0.33
     1  EXIT PROCEDURE .........      0.03   13.40             0.00    1.45             0.04    4.22


 Currently Open Files (EXIT00)
 ====================

 Unit    Access Format  Status   Type       Ident (file)
 -------------------------------------------------------
   3      SEQ    FORM   TRANSP  NORMAL      LOGFILE
                                          ( logfile )


 Buffered I/O statistics
 =======================
 Memory available:                     67108864
 Number of records fitting in memory:     16131
 Input :   1.3% of                         3604  *4k bytes
 Output:  10.6% of                         1855  *4k bytes
 Records from serial files evicted:           0
                    others evicted:           0
 Hash table lookups:      14887 with          0 conflicts (  0.00%)

 ***************************************************************************************************
 (LOGFILE)
 <Jan01-2013> <00:00:00>  DIRAC 2013.01  RunTime: Jan01-2013 00:00:00  Nodes: 1  Procs: 1
 <Jan01-2013> <00:00:00>  NORMAL TERMINATION
 <Jan01-2013> <00:00:00>  END
 <Jan01-2013> <00:00:00>  ADF 2013.01  RunTime: Jan01-2013 00:00:00  Nodes: 1  Procs: 1
 <Jan01-2013> <00:00:00>  Hydrogen (QZ, all electron, 5S 2P 2D)
 <Jan01-2013> <00:00:00>  RunType   : CREATE
 <Jan01-2013> <00:00:01>  Net Charge: 0 (Nuclei minus Electrons)
 <Jan01-2013> <00:00:01>  Symmetry  : ATOM
  Coordinates
    Atom         X           Y           Z   (Angstrom)
    1.H         0.000000    0.000000    0.000000
 <Jan01-2013> <00:00:01>  >>>> CORORT
 <Jan01-2013> <00:00:01>  >>>> FITINT
 <Jan01-2013> <00:00:01>  >>>> CLSMAT
 <Jan01-2013> <00:00:01>  >>>> ORTHON
 <Jan01-2013> <00:00:01>  >>>> GENPT
 <Jan01-2013> <00:00:01>  Acc.Num.Int.=  10.000
 <Jan01-2013> <00:00:01>  Block Length=  44
 <Jan01-2013> <00:00:01>  >>>> PTBAS
 <Jan01-2013> <00:00:01>  >>>> CYCLE
 <Jan01-2013> <00:00:01>    1
 <Jan01-2013> <00:00:01>    2  ErrMat   0.03803841  MaxEl  0.03078708
 <Jan01-2013> <00:00:01>    3  ErrMat   0.00916622  MaxEl -0.00901560
 <Jan01-2013> <00:00:01>    4  ErrMat   0.00035667  MaxEl  0.00031421
 <Jan01-2013> <00:00:01>    5  ErrMat   0.00000962  MaxEl -0.00000892
 <Jan01-2013> <00:00:01>    6  ErrMat   0.00000013  MaxEl  0.00000008
 <Jan01-2013> <00:00:01>    7  ErrMat   0.00000000  MaxEl  0.00000000
 <Jan01-2013> <00:00:01>  SCF converged
 <Jan01-2013> <00:00:01>    8  ErrMat   0.00000000  MaxEl  0.00000000
 <Jan01-2013> <00:00:01>   Solutions with partially occupied orbitals may not be
 <Jan01-2013> <00:00:01>   lowest in energy. You might consider lowering the
 <Jan01-2013> <00:00:01>   symmetry in the input and explicitly specifying integer
 <Jan01-2013> <00:00:01>   occupations. In that case always check that you obtain
 <Jan01-2013> <00:00:01>   an aufbau solution.
 <Jan01-2013> <00:00:01>  >>>> POPAN
 <Jan01-2013> <00:00:01>  >>>> DEBYE
 <Jan01-2013> <00:00:01>  NORMAL TERMINATION
 <Jan01-2013> <00:00:01>  END

 *******************************************************************************
 *                                                                             *
 *  -------------------------------------                                      *
 *   Amsterdam Density Functional  (ADF)         2013.01   April 2, 2013       *
 *  -------------------------------------                                      *
 *                                               Build 201304112106            *
 *                                                                             *
 *                                                                             *
 *                            =====================                            *
 *                            |                   |                            *
 *                            |     D I R A C     |                            *
 *                            |                   |                            *
 *                            =====================                            *
 *                                                                             *
 *                                                                             *
 *   Online information and documentation:  http://www.scm.com                 *
 *   E-mail:  support@scm.com   info@scm.com                                   *
 *                                                                             *
 *   Scientific publications using ADF results must be properly referenced     *
 *   See the User Manuals (or the web site) for recommended citations          *
 *   The terms and conditions of the End User License Agreement apply to       *
 *   the use of ADF, http://www.scm.com/Sales/LicAgreement.html                *
 *                                                                             *
 ****************************  x86_64_linux_intel  *****************************
 
 Licensed to: Prof. Cacier Hadad / University of Antioquia / Medellin / COLOMBIA
 SCM User ID: u15319
  
 DIRAC 2013.01  RunTime: Jan01-2013 00:00:02  Nodes: 1  Procs: 1

 Temporary files are created in /tmp/kid_0.erztMe

1
 OXYGEN ATOM all electron RELATIVISTIC, Point Nuc, A and c fr
 N J RN H ZN XION ANUC CLIGHT
 5000    4100.00000000197.36710137  8.00000000  0.00000000   15.994914  0.1370360E+03
  PH   PHI     EPS        DEL        DELRVR
  0.30  0.30     2500.00  0.00001000  0.00001000
 IDIRC  NC1  NDEBU NPRIN  IPUN IRCOR IWCOR
   1   300     0     0     0     0     0
   XALPHA      XLATTER      RNUC
  0.70000000  0.00000000  0.00000000 Point Charge
   XN   XL   XJ      XE          XZ      XDELL
  1.0  0.0  0.5      -5.000       2.000     0.00000
  2.0  0.0  0.5      -1.000       2.000     0.00000
  2.0  1.0  0.5      -1.000       2.000     0.00000
  2.0  1.0  1.5      -1.000       2.000     0.00000
 ICORP=  0  NPCL=  0  DEMP=0.00  PEPS=0.000000
 R(1)=  0.1000000E-08 D=  0.1005080E+01 RNUC=  0.0000000E+00
 converged at cycle   28  DENSITY AVERAGING    0.2400
  MAXIMUM ERROR IN R.V(R) IS   0.81125670E-05
 Q,EY,EV,EZ,ESUM,ETOT,RHO  0.800000E+01 -0.101247E+02 -0.114961E+03 -0.177573E+03 -0.405053E+02 -0.743427E+02  0.414766E-14


 DIRAC CALCULATION
1                    OXYGEN ATOM all electron RELATIVISTIC, Point Nuc, A and c from libtc


 EXCHANGE COEFFICIENT=  0.7000000           TAIL CORRECTION=  0.           NUCLEAR RADIUS=  0.000E+00
0                       ORBITAL    N    L    J     ELECTRONS     EIGENVALUE                DELTA OF EIGENV.

                          1S1/2  1.0  0.0  0.5     2.000       -0.1880014E+02                 0.7264359E-06
                          2S1/2  2.0  0.0  0.5     2.000       -0.8412236E+00                 0.5932752E-05
                          2P1/2  2.0  1.0  0.5     2.000       -0.3063203E+00                 0.5998471E-05
                          2P3/2  2.0  1.0  1.5     2.000       -0.3049609E+00                 0.5986971E-05


                                        NUCLEAR CHARGE=    8.000000
                            INTEGRAL OF CHARGE DENSITY=    8.000000
                           SUM OF THE ORBITAL ENERGIES=    -40.5053
                                          TOTAL ENERGY=    -74.3427
                                        KINETIC ENERGY=     74.4552
                             NUCLEAR ATTRACTION ENERGY=   -177.5730
                             ELECTRON REPULSION ENERGY=     36.3686
                                       EXCHANGE ENERGY=     -7.5935

 *******************************************************************************

                             D I R A C   E X I T
 NORMAL TERMINATION



 =================
 Timing Statistics
 =================
  
 Total Used :                     CPU=        0.15      System=        0.02     Elapsed=        0.44

 Calls  Section                     ( Mean, Percentage )
 ---------------------------------------------------------------------------------------------------
     2  ><      ................      0.00    0.00             0.00    0.02             0.00    0.00
     1  EXIT PROCEDURE .........      0.15  100.00             0.02   99.98             0.44  100.00


 Currently Open Files (EXIT00)
 ====================

 Unit    Access Format  Status   Type       Ident (file)
 -------------------------------------------------------
   3      SEQ    FORM   TRANSP  NORMAL      LOGFILE
                                          ( logfile )


 Buffered I/O statistics
 =======================
 Memory available:                     67108864
 Number of records fitting in memory:     16131
 Input : 100.0% of                            0  *4k bytes
 Output: 100.0% of                            0  *4k bytes
 Records from serial files evicted:           0
                    others evicted:           0
 Hash table lookups:          0 with          0 conflicts (100.00%)
(INPUT FILE)
Create O   file=/home/andyzapa/adf2013.01/atomicdata/ZORA/QZ4P/O
XC
GGA PBE
End
relativistic ZORA
Corepotentials t12.rel
End Input

 *******************************************************************************
 *                                                                             *
 *  -------------------------------------                                      *
 *   Amsterdam Density Functional  (ADF)         2013.01   April 2, 2013       *
 *  -------------------------------------                                      *
 *                                               Build 201304112215            *
 *                                                                             *
 *                                                                             *
 *                              =================                              *
 *                              |               |                              *
 *                              |     A D F     |                              *
 *                              |               |                              *
 *                              =================                              *
 *                                                                             *
 *                                                                             *
 *   Online information and documentation:  http://www.scm.com                 *
 *   E-mail:  support@scm.com   info@scm.com                                   *
 *                                                                             *
 *   Scientific publications using ADF results must be properly referenced     *
 *   See the User Manuals (or the web site) for recommended citations          *
 *   The terms and conditions of the End User License Agreement apply to       *
 *   the use of ADF, http://www.scm.com/Sales/LicAgreement.html                *
 *                                                                             *
 ********************  x86_64_linux_intel / platform_mpi  **********************
 
 Licensed to: Prof. Cacier Hadad / University of Antioquia / Medellin / COLOMBIA
 SCM User ID: u15319
  
 ADF 2013.01  RunTime: Jan01-2013 00:00:02  Nodes: 1  Procs: 1

 Temporary files are created in /tmp/kid_0.ag8MDG

 Oxygen (QZ, all electron, 8S 4P 2D 2F)



 ===========================
 A T T A C H E D   F I L E S
 ===========================
  
 CREATE - Data File:    /home/andyzapa/adf2013.01/atomicdata/ZORA/QZ4P/O
                        Oxygen (QZ, all electron, 8S 4P 2D 2F)
 Core Potentials:
         file : t12.rel



 ===============================
 M O D E L   P A R A M E T E R S
 ===============================
  
 DENSITY FUNCTIONAL POTENTIAL (scf)
    LDA:                               PW92                                    == Not Default ==
    Gradient Corrections:              PBEc PBEx                               == Not Default ==

 SPIN  (restricted / unrestr.)
    Molecule:                          Restricted                               

 OTHER ASPECTS
    Relativistic Corrections:          scalar (ZORA,SAPA)                      == Not Default ==

    Nuclear Charge Density Model:      Point Charge Nuclei                                                                                                                                                                                     
    Core Treatment:                    Frozen Orbital(s)                        

    Hyperfine or Zeeman Interaction:   ---                                      



 =====================================
 S Y M M E T R Y ,   E L E C T R O N S
 =====================================
  
 Symmetry: ATOM

 Irreducible Representations, including subspecies
 -------------------------------------------------
 S
 P:x  P:y  P:z
 D:z2  D:x2-y2  D:xy  D:xz  D:yz
 F:z3  F:z  F:xyz  F:z2x  F:z2y  F:x  F:y


 Configuration of Valence Electrons
 ==================================

          Occupation Numbers
          -------------------------------------------------
 S        2*2
 P        4
 D        0
 F        0
          -------------------------------------------------

 Total:   8

 Net Charge: 0 (Nuclei minus Electrons)

 Preset values for MO occupations will be applied through SCF cycle no. 1000000
 Thereafter, the program will assign electrons to MOs that are spatially
 similar to the occupied MOs in a "reference" cycle ("KeepOrbitals").
 The reference cycle is always the PREVIOUS cycle: it will evolve with
 the SCF procedure.



 ================================
 (Slater-type)  F U N C T I O N S  ***  (Basis and Fit)  ***
 ================================
  

 Atom Type    1  (O)
 ==============

 Valence Basis Sets:  16
 -----------------------
   1 S   14.800000
   1 S    8.750000
   1 S    6.650000
   2 S    7.100000
   2 S    3.200000
   2 S    2.050000
   2 S    1.500000
   2 S    0.750000
   2 P    5.700000
   2 P    3.050000
   2 P    1.650000
   2 P    1.000000
   3 D    2.500000
   3 D    1.500000
   4 F    4.000000
   4 F    2.000000

 Charge Fitting Sets (for the computation of the Coulomb Potential):  37
 -----------------------------------------------------------------------
   1 S   29.600000
   1 S   22.760000
   1 S   17.500000
   1 S   11.580000
   2 S   14.160000
   2 S   10.290000
   2 S    7.480000
   2 S    5.430000
   3 S    5.780000
   3 S    4.410000
   3 S    3.370000
   3 S    2.570000
   3 S    1.960000
   3 S    1.500000
   2 P   14.450000
   2 P    9.770000
   2 P    6.610000
   3 P    6.560000
   3 P    4.710000
   3 P    3.390000
   3 P    2.430000
   3 P    1.750000
   3 D   11.400000
   3 D    7.640000
   3 D    5.120000
   4 D    4.550000
   4 D    3.200000
   4 D    2.250000
   4 F   12.750000
   4 F    8.120000
   4 F    5.170000
   5 F    4.130000
   5 F    2.750000
   5 G    9.700000
   5 G    6.560000
   5 G    4.440000
   5 G    3.000000


 BAS: List of all Elementary Cartesian Basis Functions
 =====================================================

 The numbering in the list below (to the right of the function characteristics) is referred
 to in print-outs of MO eigenvectors and Mulliken populations in the BAS representation
 (as contrasted to the SFO representation).

 Notes:
 1. The functions are characterized by a polynomial prefactor (powers of x,y,z and r) and
    an exponential decay factor alpha.
 2. Since the basis sets are specific for an atom TYPE, the individual functions occur on
    all atoms of that type.
 3. The word 'Core' in the left margin signals that it is a Core Function (CF) : not a
    degree of freedom in the valence set, but only used to ensure orthogonalization of
    the other valence basis functions on the frozen Core Orbitals.


 (power of) X  Y  Z  R     Alpha  on Atom
            ==========     =====     ==========

 O                                    1
                                  ---------------------------------------------------------------------------
            0  0  0  0    14.800      1
            0  0  0  0     8.750      2
            0  0  0  0     6.650      3
            0  0  0  1     7.100      4
            0  0  0  1     3.200      5
            0  0  0  1     2.050      6
            0  0  0  1     1.500      7
            0  0  0  1     0.750      8
            1  0  0  0     5.700      9
            0  1  0  0     5.700     10
            0  0  1  0     5.700     11
            1  0  0  0     3.050     12
            0  1  0  0     3.050     13
            0  0  1  0     3.050     14
            1  0  0  0     1.650     15
            0  1  0  0     1.650     16
            0  0  1  0     1.650     17
            1  0  0  0     1.000     18
            0  1  0  0     1.000     19
            0  0  1  0     1.000     20
            2  0  0  0     2.500     21
            1  1  0  0     2.500     22
            1  0  1  0     2.500     23
            0  2  0  0     2.500     24
            0  1  1  0     2.500     25
            0  0  2  0     2.500     26
            2  0  0  0     1.500     27
            1  1  0  0     1.500     28
            1  0  1  0     1.500     29
            0  2  0  0     1.500     30
            0  1  1  0     1.500     31
            0  0  2  0     1.500     32
            3  0  0  0     4.000     33
            2  1  0  0     4.000     34
            2  0  1  0     4.000     35
            1  2  0  0     4.000     36
            1  1  1  0     4.000     37
            1  0  2  0     4.000     38
            0  3  0  0     4.000     39
            0  2  1  0     4.000     40
            0  1  2  0     4.000     41
            0  0  3  0     4.000     42
            3  0  0  0     2.000     43
            2  1  0  0     2.000     44
            2  0  1  0     2.000     45
            1  2  0  0     2.000     46
            1  1  1  0     2.000     47
            1  0  2  0     2.000     48
            0  3  0  0     2.000     49
            0  2  1  0     2.000     50
            0  1  2  0     2.000     51
            0  0  3  0     2.000     52

 Total number of charge fitting functions (nprimf)       184
 Total number of Cartesian basis functions (naos)         52
 Total number of Cartesian core functions  (ncos)          0



 BAS: List of all Elementary Cartesian Basis Functions
 =====================================================

 The numbering in the list below (to the right of the function characteristics) is referred
 to in print-outs of MO eigenvectors and Mulliken populations in the BAS representation
 (as contrasted to the SFO representation).

 Notes:
 1. The functions are characterized by a polynomial prefactor (powers of x,y,z and r) and
    an exponential decay factor alpha.
 2. Since the basis sets are specific for an atom TYPE, the individual functions occur on
    all atoms of that type.
 3. The word 'Core' in the left margin signals that it is a Core Function (CF) : not a
    degree of freedom in the valence set, but only used to ensure orthogonalization of
    the other valence basis functions on the frozen Core Orbitals.


 (power of) X  Y  Z  R     Alpha  on Atom
            ==========     =====     ==========

 O                                    1
                                  ---------------------------------------------------------------------------
            0  0  0  0    14.800      1
            0  0  0  0     8.750      2
            0  0  0  0     6.650      3
            0  0  0  1     7.100      4
            0  0  0  1     3.200      5
            0  0  0  1     2.050      6
            0  0  0  1     1.500      7
            0  0  0  1     0.750      8
            1  0  0  0     5.700      9
            0  1  0  0     5.700     10
            0  0  1  0     5.700     11
            1  0  0  0     3.050     12
            0  1  0  0     3.050     13
            0  0  1  0     3.050     14
            1  0  0  0     1.650     15
            0  1  0  0     1.650     16
            0  0  1  0     1.650     17
            1  0  0  0     1.000     18
            0  1  0  0     1.000     19
            0  0  1  0     1.000     20
            2  0  0  0     2.500     21
            1  1  0  0     2.500     22
            1  0  1  0     2.500     23
            0  2  0  0     2.500     24
            0  1  1  0     2.500     25
            0  0  2  0     2.500     26
            2  0  0  0     1.500     27
            1  1  0  0     1.500     28
            1  0  1  0     1.500     29
            0  2  0  0     1.500     30
            0  1  1  0     1.500     31
            0  0  2  0     1.500     32
            3  0  0  0     4.000     33
            2  1  0  0     4.000     34
            2  0  1  0     4.000     35
            1  2  0  0     4.000     36
            1  1  1  0     4.000     37
            1  0  2  0     4.000     38
            0  3  0  0     4.000     39
            0  2  1  0     4.000     40
            0  1  2  0     4.000     41
            0  0  3  0     4.000     42
            3  0  0  0     2.000     43
            2  1  0  0     2.000     44
            2  0  1  0     2.000     45
            1  2  0  0     2.000     46
            1  1  1  0     2.000     47
            1  0  2  0     2.000     48
            0  3  0  0     2.000     49
            0  2  1  0     2.000     50
            0  1  2  0     2.000     51
            0  0  3  0     2.000     52
1
 ***************************************************************************************************



                                              ***********************
                                              *  T E C H N I C A L  *
                                              ***********************
  



 =============================================================
 P A R A L L E L I Z A T I O N  and  V E C T O R I Z A T I O N
 =============================================================
  
 Nr of parallel processes:                                1
 Maximum vector length in NumInt loops:                 128



 ===============
 I O  vs.  C P U  ***  (store numerical data on disk or recalculate)  ***
 ===============
  
 Basis functions:   recalculate when needed
 Fit functions:     recalculate when needed

 IO buffersize (Mb):                                     64.000000



 =====================
 S C F   U P D A T E S
 =====================
  
 Max. nr. of cycles:                               100
 Convergence criterion:                              0.0000000100
   secondary criterion:                              0.0000000100

 Mix parameter (when DIIS does not apply):           0.2000000000
 Special mix parameter for the first cycle:          1.0000000000


 DIIS (Direct Inversion in Iteration Space)
    Replace damping when SCF Error is below:         0.5000000000
    Apply anyway after SCF cycle:
                                                     5
    (Max.) nr. of expansion vectors:                10

    Upperbound on expansion coefficients:            5.0000000000
    (when exceeded, IterationSpace is re-built)
    2nd Upperbound on coefficients:                 25.0000000000
    (when exceeded, simple damping will be used)
 Automatic ElectronSmearing (in case of problematic SCF convergence) disabled



 =================
 P R E C I S I O N  ***  (General: NumInt, NeglectFunctionTails, ...)  ***
 =================
  

 NumInt:           Target precision:                10.0000000000
 -------           Initial precision:               10.0000000000
                   Min. precision (optimization):   10.0000000000

 Neglect Functions:          Basis functions:        0.1000000000E-11
 ------------------          Fit functions:          0.1000000000E-11



 ===========================
 L I N E A R   S C A L I N G
 ===========================
  

 Cut-off radii density fit:                        0.1000000000E-13
 Overlap cut-off criterion AO matrix elements:     0.1000000000E-11
 Cut-offs for Coulomb potential and fitted density:0.1000000000E-13
 Cut-off criterion for Coulomb multipole terms:    0.1000000000E-13
 Progressive Convergence parameter:                 0.000000000    
1
 ***************************************************************************************************



                                            ***************************
                                            *  C O M P U T A T I O N  *
                                            ***************************
  

 Number of elements of the density matrix on this node (used, total):      1378      1378



 ====================================================
 Numerical Integration : Voronoi Polyhedra (Te Velde)
 ====================================================
  
 General Accuracy Parameter :                         10.00

 Symmetry used in the points section:  ATOM  


 Summary of the Symmetry Unique Points:
 --------------------------------------
    Nr. of used Symmetry Operators                     1

    Points in the Atomic Spheres                      61
    Points in the Atomic Polyhedra                     0
    Points in the Outer Region                         0
    ----------------------------------------------------
    Total                                             61

    Sum of Weights                                 58501.056183

 Total nr. of points:         61
 Nr. of blocks:                1
 Block length:                61
 Nr. of dummy points:          0


 Test of Precision of the Numerical Integration Grid
 ===================================================

 Integral of the Total Core Density:                   0.00000000000000



 =====
 S C F
 =====
  

 CYCLE    1
 orbitals (Q,E):
 ---------------
 S :1...8            ( 2.00   -32.0159)  ( 2.00    -8.0044)  ( 0.00    -3.5574)  ( 0.00    -1.9901)
                     ( 0.00    -1.2515)  ( 0.00     4.1058)  ( 0.00    41.2206)  ( 0.00   308.5800)
 P :1...4            ( 4.00    -7.9758)  ( 0.00    -3.5116)  ( 0.00    -1.8856)  ( 0.00     3.1956)
 D :1...2            ( 0.00    -3.5495)  ( 0.00    -1.9917)
 F :1...2            ( 0.00    -1.9999)  ( 0.00     1.0590)

 CYCLE    2
 d-Pmat  mean:  0.11E+01
 imax=      3: -0.25E+02
 orbitals (Q,E):
 ---------------
 S :1...3            ( 2.00   -14.5566)  ( 2.00    -0.0356)  ( 0.00     0.1667)
 P :1...2            ( 4.00     0.2048)  ( 0.00     0.7903)
 D :1...1            ( 0.00     0.7381)
 F :1...1            ( 0.00     1.6042)

 CYCLE    3
 d-Pmat  mean:  0.30E+00
 imax=     20: -0.24E+01
 orbitals (Q,E):
 ---------------
 S :1...3            ( 2.00   -16.2388)  ( 2.00    -0.4301)  ( 0.00     0.0620)
 P :1...2            ( 4.00     0.0108)  ( 0.00     0.4058)
 D :1...1            ( 0.00     0.5775)
 F :1...1            ( 0.00     1.4155)

 CYCLE    4
 d-Pmat  mean:  0.10E+00
 imax=     20: -0.11E+01
 orbitals (Q,E):
 ---------------
 S :1...3            ( 2.00   -17.2725)  ( 2.00    -0.6986)  ( 0.00     0.0275)
 P :1...2            ( 4.00    -0.1717)  ( 0.00     0.2612)
 D :1...1            ( 0.00     0.5085)
 F :1...1            ( 0.00     1.3362)

 CYCLE    5
 d-Pmat  mean:  0.56E-01
 imax=      3:  0.70E+00
 orbitals (Q,E):
 ---------------
 S :1...3            ( 2.00   -18.8741)  ( 2.00    -0.8425)  ( 0.00     0.0251)
 P :1...2            ( 4.00    -0.2957)  ( 0.00     0.2201)
 D :1...1            ( 0.00     0.5505)
 F :1...1            ( 0.00     1.3859)

 CYCLE    6
 d-Pmat  mean:  0.57E-02
 imax=      2:  0.75E-01
 orbitals (Q,E):
 ---------------
 S :1...3            ( 2.00   -18.9263)  ( 2.00    -0.8875)  ( 0.00     0.0144)
 P :1...2            ( 4.00    -0.3386)  ( 0.00     0.1983)
 D :1...1            ( 0.00     0.5241)
 F :1...1            ( 0.00     1.3583)

 CYCLE    7
 d-Pmat  mean:  0.80E-03
 imax=      6: -0.45E-02
 orbitals (Q,E):
 ---------------
 S :1...3            ( 2.00   -18.9106)  ( 2.00    -0.8796)  ( 0.00     0.0160)
 P :1...2            ( 4.00    -0.3310)  ( 0.00     0.2007)
 D :1...1            ( 0.00     0.5265)
 F :1...1            ( 0.00     1.3609)

 CYCLE    8
 d-Pmat  mean:  0.91E-04
 imax=      6:  0.77E-03
 orbitals (Q,E):
 ---------------
 S :1...3            ( 2.00   -18.9122)  ( 2.00    -0.8804)  ( 0.00     0.0159)
 P :1...2            ( 4.00    -0.3317)  ( 0.00     0.2005)
 D :1...1            ( 0.00     0.5262)
 F :1...1            ( 0.00     1.3606)

 CYCLE    9
 d-Pmat  mean:  0.72E-06
 imax=      2: -0.12E-04
 orbitals (Q,E):
 ---------------
 S :1...3            ( 2.00   -18.9122)  ( 2.00    -0.8804)  ( 0.00     0.0159)
 P :1...2            ( 4.00    -0.3317)  ( 0.00     0.2005)
 D :1...1            ( 0.00     0.5262)
 F :1...1            ( 0.00     1.3606)

 CYCLE   10
 d-Pmat  mean:  0.12E-07
 imax=      6: -0.16E-06
 orbitals (Q,E):
 ---------------
 S :1...3            ( 2.00   -18.9122)  ( 2.00    -0.8804)  ( 0.00     0.0159)
 P :1...2            ( 4.00    -0.3317)  ( 0.00     0.2005)
 D :1...1            ( 0.00     0.5262)
 F :1...1            ( 0.00     1.3606)

 CYCLE   11
 d-Pmat  mean:  0.11E-09
 imax=      6: -0.12E-08
 orbitals (Q,E):
 ---------------
 S :1...3            ( 2.00   -18.9122)  ( 2.00    -0.8804)  ( 0.00     0.0159)
 P :1...2            ( 4.00    -0.3317)  ( 0.00     0.2005)
 D :1...1            ( 0.00     0.5262)
 F :1...1            ( 0.00     1.3606)

 SCF CONVERGED

 CYCLE   12
1
 ***************************************************************************************************



                                                *******************
                                                *  R E S U L T S  *
                                                *******************
  
 *** Setting up for NEW gradients in focky
 *** Using FIT density in focky

 Scaled ZORA Orbital Energies, per Irrep and Spin:
 =================================================
                        Occup              E (au)              E (eV)       Diff (eV) with prev. cycle
                        -----      --------------------        ------       --------------------------
 S
               1        2.000     -0.18912163588984E+02      -514.626              -7.16E-09
               2        2.000     -0.88042536044543E+00       -23.958              -7.12E-09
               3        0.000      0.15917239287972E-01         0.433
               4        0.000      0.47157189633591E+00        12.832
               5        0.000      0.25092163529346E+01        68.279
               6        0.000      0.11901959076240E+02       323.869
               7        0.000      0.52347890774294E+02      1424.459
               8        0.000      0.32159312651573E+03      8750.994
 P
               1        4.000     -0.33172720151306E+00        -9.027              -6.97E-09
               2        0.000      0.20052917629028E+00         5.457
               3        0.000      0.16594440941108E+01        45.156
               4        0.000      0.12142335979422E+02       330.410
 D
               1        0.000      0.52623159764820E+00        14.319
               2        0.000      0.24055384908689E+01        65.458
 F
               1        0.000      0.13606224427136E+01        37.024
               2        0.000      0.70188296925037E+01       190.992


 Partially Occupied:
               1 P                -0.33172720151306E+00
  
 HOMO :        2 S                -0.88042536044543E+00
 LUMO :        3 S                 0.15917239287972E-01
  


 Orbital Energies, all Irreps
 ========================================

 Irrep        no.  (spin)   Occup              E (au)                E (eV)
 ---------------------------------------------------------------------------
 S             1             2.00       -0.18912163588984E+02      -514.6262
 S             2             2.00       -0.88042536044543E+00       -23.9576
 P             1             4.00       -0.33172720151306E+00        -9.0268
 S             3             0.00        0.15917239287972E-01         0.4331
 P             2             0.00        0.20052917629028E+00         5.4567
 S             4             0.00        0.47157189633591E+00        12.8321
 D             1             0.00        0.52623159764820E+00        14.3195
 F             1             0.00        0.13606224427136E+01        37.0244
 P             3             0.00        0.16594440941108E+01        45.1558
 D             2             0.00        0.24055384908689E+01        65.4580
 S             5             0.00        0.25092163529346E+01        68.2793
 F             2             0.00        0.70188296925037E+01       190.9921
 S             6             0.00        0.11901959076240E+02       323.8688
 P             4             0.00        0.12142335979422E+02       330.4098
 S             7             0.00        0.52347890774294E+02      1424.4586
 S             8             0.00        0.32159312651573E+03      8750.9942


 All Electron Calculation, thus no Orbital Energies of the Core Orbitals are calculated



 =======================================
 M U L L I K E N   P O P U L A T I O N S
 =======================================
  
 The survey below gives for each atom:
 a) the total charge (Z minus electrons)
 b) the net spin polarization (nr of electrons spin-A minus spin-B)
 c) for each spin the atomic electron valence density (integrated) per L-value.

 Atom              Charge    Spin density          S         P         D         F
 ----              ------    ------------       ------    ------    ------    ------
 1 O               0.0000                       4.0000    4.0000    0.0000    0.0000

 Populations of individual BAS functions
 ----------------------------------------
 1 O            0.0407  0.7707  1.2791 -0.1485  0.7639  1.0393  0.2537  0.0009  0.0450  0.0450
                0.0450  0.4807  0.4807  0.4807  0.6422  0.6422  0.6422  0.1654  0.1654  0.1654
                0.0000  0.0000  0.0000  0.0000  0.0000  0.0000  0.0000  0.0000  0.0000  0.0000
                0.0000  0.0000  0.0000  0.0000  0.0000  0.0000  0.0000  0.0000  0.0000  0.0000
                0.0000  0.0000  0.0000  0.0000  0.0000  0.0000  0.0000  0.0000  0.0000  0.0000
                0.0000  0.0000

 Gross Charges per Atom (Z minus electrons)
 ==========================================
             0.0000
 Net Total:  0.00000000


 Atom-Atom Population Matrix (off-diagonal elements not doubled)
 ===============================================================

     1 :     8.0000



 =============
 Dipole Moment  ***  (Debye)  ***
 =============
  
 Vector   :         0.00000000      0.00000000      0.00000000
 Magnitude:         0.00000000

 This molecular dipole moment is calculated with analytic integration



 =========================================
 Quadrupole Moment (Buckingham convention)  ***  (a.u.)  ***
 =========================================
  
      quad-xx        quad-xy        quad-xz        quad-yy        quad-yz        quad-zz
      0.00000000     0.00000000     0.00000000     0.00000000     0.00000000     0.00000000

 This molecular quadrupole moment is calculated with analytic integration



 ===============================================================================
 Electrostatic potential at the Nuclei due to valence electrons and other nuclei
 ===============================================================================
  
         Atom                  Potential
         ----                  ---------
     1)   O                  22.26490088
 
 
 ========================
 No memory problems found
 ========================
 
 Maximum number of active allocate calls:         476
 
 *******************************************************************************

                             A D F   E X I T
 NORMAL TERMINATION



 =================
 Timing Statistics
 =================
  
 Total Used :                     CPU=        0.35      System=        0.06     Elapsed=        1.38

 Calls  Section                     ( Mean, Percentage )
 ---------------------------------------------------------------------------------------------------
     3  ><      ................      0.00    0.46             0.00    0.03             0.01    1.10
     1  INIT    ................      0.01    3.98             0.00    3.10             0.21   14.96
     1  GEOMET  ................      0.01    3.95             0.02   30.80             0.08    6.02
     1  INPUTA  ................      0.00    0.80             0.00    0.38             0.00    0.28
     1  MAINSY  ................      0.01    2.49             0.00    3.74             0.06    4.39
     1  SYMFIT  ................      0.00    0.07             0.00    0.32             0.00    0.03
     1  CORORT  ................      0.00    0.07             0.00    0.33             0.02    1.16
     1  SYMORB  ................      0.00    0.25             0.00    1.08             0.00    0.11
     1  FITINT  ................      0.01    1.85             0.01   10.81             0.04    2.69
     1  CLSMAT  ................      0.00    0.11             0.00    0.51             0.12    8.91
     1  ORTHON  ................      0.00    0.74             0.00    0.40             0.01    0.77
     1  GENPT   ................      0.01    3.48             0.00    0.00             0.04    2.75
     1  PTBAS   ................      0.00    1.02             0.00    0.00             0.01    0.62
    12  FOCKY   ................      0.01   47.46             0.00   18.17             0.02   19.43
    12  FOCKTR  ................      0.00    1.62             0.00    0.42             0.00    0.43
    12  FOCKNM  ................      0.00    0.17             0.00    0.05             0.00    0.05
    12  SDIIS   ................      0.00    1.99             0.00    1.90             0.01   10.64
    12  EMERGE  ................      0.01   17.20             0.00   20.10             0.02   13.00
     1  COREPS  ................      0.01    1.66             0.00    0.46             0.06    4.37
     1  POPAN   ................      0.00    1.20             0.00    0.37             0.06    4.68
     1  DEBYE   ................      0.00    0.29             0.00    0.36             0.01    0.45
     1  QMPOT   ................      0.00    0.11             0.00    6.40             0.00    0.31
     1  EXIT PROCEDURE .........      0.03    9.03             0.00    0.28             0.04    2.86


 Currently Open Files (EXIT00)
 ====================

 Unit    Access Format  Status   Type       Ident (file)
 -------------------------------------------------------
   3      SEQ    FORM   TRANSP  NORMAL      LOGFILE
                                          ( logfile )


 Buffered I/O statistics
 =======================
 Memory available:                     67108864
 Number of records fitting in memory:     16131
 Input :   0.9% of                         6430  *4k bytes
 Output:   8.3% of                         2767  *4k bytes
 Records from serial files evicted:           0
                    others evicted:           0
 Hash table lookups:      25047 with          0 conflicts (  0.00%)

 ***************************************************************************************************
 (LOGFILE)
 <Jan01-2013> <00:00:00>  DIRAC 2013.01  RunTime: Jan01-2013 00:00:00  Nodes: 1  Procs: 1
 <Jan01-2013> <00:00:00>  NORMAL TERMINATION
 <Jan01-2013> <00:00:00>  END
 <Jan01-2013> <00:00:00>  ADF 2013.01  RunTime: Jan01-2013 00:00:00  Nodes: 1  Procs: 1
 <Jan01-2013> <00:00:00>  Hydrogen (QZ, all electron, 5S 2P 2D)
 <Jan01-2013> <00:00:00>  RunType   : CREATE
 <Jan01-2013> <00:00:01>  Net Charge: 0 (Nuclei minus Electrons)
 <Jan01-2013> <00:00:01>  Symmetry  : ATOM
  Coordinates
    Atom         X           Y           Z   (Angstrom)
    1.H         0.000000    0.000000    0.000000
 <Jan01-2013> <00:00:01>  >>>> CORORT
 <Jan01-2013> <00:00:01>  >>>> FITINT
 <Jan01-2013> <00:00:01>  >>>> CLSMAT
 <Jan01-2013> <00:00:01>  >>>> ORTHON
 <Jan01-2013> <00:00:01>  >>>> GENPT
 <Jan01-2013> <00:00:01>  Acc.Num.Int.=  10.000
 <Jan01-2013> <00:00:01>  Block Length=  44
 <Jan01-2013> <00:00:01>  >>>> PTBAS
 <Jan01-2013> <00:00:01>  >>>> CYCLE
 <Jan01-2013> <00:00:01>    1
 <Jan01-2013> <00:00:01>    2  ErrMat   0.03803841  MaxEl  0.03078708
 <Jan01-2013> <00:00:01>    3  ErrMat   0.00916622  MaxEl -0.00901560
 <Jan01-2013> <00:00:01>    4  ErrMat   0.00035667  MaxEl  0.00031421
 <Jan01-2013> <00:00:01>    5  ErrMat   0.00000962  MaxEl -0.00000892
 <Jan01-2013> <00:00:01>    6  ErrMat   0.00000013  MaxEl  0.00000008
 <Jan01-2013> <00:00:01>    7  ErrMat   0.00000000  MaxEl  0.00000000
 <Jan01-2013> <00:00:01>  SCF converged
 <Jan01-2013> <00:00:01>    8  ErrMat   0.00000000  MaxEl  0.00000000
 <Jan01-2013> <00:00:01>   Solutions with partially occupied orbitals may not be
 <Jan01-2013> <00:00:01>   lowest in energy. You might consider lowering the
 <Jan01-2013> <00:00:01>   symmetry in the input and explicitly specifying integer
 <Jan01-2013> <00:00:01>   occupations. In that case always check that you obtain
 <Jan01-2013> <00:00:01>   an aufbau solution.
 <Jan01-2013> <00:00:01>  >>>> POPAN
 <Jan01-2013> <00:00:01>  >>>> DEBYE
 <Jan01-2013> <00:00:01>  NORMAL TERMINATION
 <Jan01-2013> <00:00:01>  END
 <Jan01-2013> <00:00:02>  DIRAC 2013.01  RunTime: Jan01-2013 00:00:02  Nodes: 1  Procs: 1
 <Jan01-2013> <00:00:02>  NORMAL TERMINATION
 <Jan01-2013> <00:00:02>  END
 <Jan01-2013> <00:00:02>  ADF 2013.01  RunTime: Jan01-2013 00:00:02  Nodes: 1  Procs: 1
 <Jan01-2013> <00:00:02>  Oxygen (QZ, all electron, 8S 4P 2D 2F)
 <Jan01-2013> <00:00:02>  RunType   : CREATE
 <Jan01-2013> <00:00:02>  Net Charge: 0 (Nuclei minus Electrons)
 <Jan01-2013> <00:00:02>  Symmetry  : ATOM
  Coordinates
    Atom         X           Y           Z   (Angstrom)
    1.O         0.000000    0.000000    0.000000
 <Jan01-2013> <00:00:02>  >>>> CORORT
 <Jan01-2013> <00:00:02>  >>>> FITINT
 <Jan01-2013> <00:00:02>  >>>> CLSMAT
 <Jan01-2013> <00:00:02>  >>>> ORTHON
 <Jan01-2013> <00:00:02>  >>>> GENPT
 <Jan01-2013> <00:00:02>  Acc.Num.Int.=  10.000
 <Jan01-2013> <00:00:03>  Block Length=  61
 <Jan01-2013> <00:00:03>  >>>> PTBAS
 <Jan01-2013> <00:00:03>  >>>> CYCLE
 <Jan01-2013> <00:00:03>    1
 <Jan01-2013> <00:00:03>    2  ErrMat   9.74921119  MaxEl  4.13901188
 <Jan01-2013> <00:00:03>    3  ErrMat   3.70162575  MaxEl -2.91656479
 <Jan01-2013> <00:00:03>    4  ErrMat   2.94969143  MaxEl -1.91814781
 <Jan01-2013> <00:00:03>    5  ErrMat   1.88970508  MaxEl -1.07111528
 <Jan01-2013> <00:00:03>    6  ErrMat   0.04645268  MaxEl -0.01876707
 <Jan01-2013> <00:00:03>    7  ErrMat   0.02377733  MaxEl  0.01063637
 <Jan01-2013> <00:00:03>    8  ErrMat   0.00251040  MaxEl -0.00114123
 <Jan01-2013> <00:00:03>    9  ErrMat   0.00000968  MaxEl -0.00000432
 <Jan01-2013> <00:00:03>   10  ErrMat   0.00000018  MaxEl  0.00000007
 <Jan01-2013> <00:00:03>   11  ErrMat   0.00000000  MaxEl  0.00000000
 <Jan01-2013> <00:00:03>  SCF converged
 <Jan01-2013> <00:00:03>   12  ErrMat   0.00000000  MaxEl  0.00000000
 <Jan01-2013> <00:00:03>   Solutions with partially occupied orbitals may not be
 <Jan01-2013> <00:00:03>   lowest in energy. You might consider lowering the
 <Jan01-2013> <00:00:03>   symmetry in the input and explicitly specifying integer
 <Jan01-2013> <00:00:03>   occupations. In that case always check that you obtain
 <Jan01-2013> <00:00:03>   an aufbau solution.
 <Jan01-2013> <00:00:03>  >>>> POPAN
 <Jan01-2013> <00:00:03>  >>>> DEBYE
 <Jan01-2013> <00:00:03>  NORMAL TERMINATION
 <Jan01-2013> <00:00:03>  END

 *******************************************************************************
 *                                                                             *
 *  -------------------------------------                                      *
 *   Amsterdam Density Functional  (ADF)         2013.01   April 2, 2013       *
 *  -------------------------------------                                      *
 *                                               Build 201304112106            *
 *                                                                             *
 *                                                                             *
 *                            =====================                            *
 *                            |                   |                            *
 *                            |     D I R A C     |                            *
 *                            |                   |                            *
 *                            =====================                            *
 *                                                                             *
 *                                                                             *
 *   Online information and documentation:  http://www.scm.com                 *
 *   E-mail:  support@scm.com   info@scm.com                                   *
 *                                                                             *
 *   Scientific publications using ADF results must be properly referenced     *
 *   See the User Manuals (or the web site) for recommended citations          *
 *   The terms and conditions of the End User License Agreement apply to       *
 *   the use of ADF, http://www.scm.com/Sales/LicAgreement.html                *
 *                                                                             *
 ****************************  x86_64_linux_intel  *****************************
 
 Licensed to: Prof. Cacier Hadad / University of Antioquia / Medellin / COLOMBIA
 SCM User ID: u15319
  
 DIRAC 2013.01  RunTime: Jan01-2013 00:00:03  Nodes: 1  Procs: 1

 Temporary files are created in /tmp/kid_0.TJUhlk

1
 MERCURY ATOM all electron RELATIVISTIC, Point Nuc, A and c f
 N J RN H ZN XION ANUC CLIGHT
 5000   22100.00000000197.36710137 80.00000000  0.00000000  201.970625  0.1370360E+03
  PH   PHI     EPS        DEL        DELRVR
  0.30  0.30     2500.00  0.00001000  0.00001000
 IDIRC  NC1  NDEBU NPRIN  IPUN IRCOR IWCOR
   1   300     0     0     0     0     0
   XALPHA      XLATTER      RNUC
  0.70000000  0.00000000  0.00000000 Point Charge
   XN   XL   XJ      XE          XZ      XDELL
  1.0  0.0  0.5   -2600.000       2.000     0.00000
  2.0  0.0  0.5    -425.000       2.000     0.00000
  2.0  1.0  0.5    -425.000       2.000     0.00000
  2.0  1.0  1.5    -425.000       4.000     0.00000
  3.0  0.0  0.5    -100.000       2.000     0.00000
  3.0  1.0  0.5    -100.000       2.000     0.00000
  3.0  1.0  1.5    -100.000       4.000     0.00000
  3.0  2.0  1.5     -80.000       4.000     0.00000
  3.0  2.0  2.5     -80.000       6.000     0.00000
  4.0  0.0  0.5     -22.000       2.000     0.00000
  4.0  1.0  0.5     -20.000       2.000     0.00000
  4.0  1.0  1.5     -20.000       4.000     0.00000
  4.0  2.0  1.5     -11.000       4.000     0.00000
  4.0  2.0  2.5     -11.000       6.000     0.00000
  5.0  0.0  0.5      -3.000       2.000     0.00000
  5.0  1.0  0.5      -2.200       2.000     0.00000
  5.0  1.0  1.5      -2.200       4.000     0.00000
  4.0  3.0  2.5      -1.000       6.000     0.00000
  4.0  3.0  3.5      -1.000       8.000     0.00000
  5.0  2.0  1.5      -0.500       4.000     0.00000
  5.0  2.0  2.5      -0.500       6.000     0.00000
  6.0  0.0  0.5      -0.200       2.000     0.00000
 ICORP=  0  NPCL=  0  DEMP=0.00  PEPS=0.000000
 R(1)=  0.1000000E-08 D=  0.1005080E+01 RNUC=  0.0000000E+00
 converged at cycle   71  DENSITY AVERAGING    0.0786
  MAXIMUM ERROR IN R.V(R) IS   0.62886379E-05
 Q,EY,EV,EZ,ESUM,ETOT,RHO  0.800000E+02 -0.496572E+03 -0.348382E+05 -0.496228E+05 -0.121443E+05 -0.196607E+05  0.241251E-08


 DIRAC CALCULATION
1                    MERCURY ATOM all electron RELATIVISTIC, Point Nuc, A and c from libtc


 EXCHANGE COEFFICIENT=  0.7000000           TAIL CORRECTION=  0.           NUCLEAR RADIUS=  0.000E+00
0                       ORBITAL    N    L    J     ELECTRONS     EIGENVALUE                DELTA OF EIGENV.

                          1S1/2  1.0  0.0  0.5     2.000       -0.3050991E+04                 0.4924760E-04
                          2S1/2  2.0  0.0  0.5     2.000       -0.5405089E+03                 0.4254074E-04
                          2P1/2  2.0  1.0  0.5     2.000       -0.5187363E+03                 0.4411548E-04
                          2P3/2  2.0  1.0  1.5     4.000       -0.4471398E+03                 0.4301762E-04
                          3S1/2  3.0  0.0  0.5     2.000       -0.1282616E+03                 0.3041592E-04
                          3P1/2  3.0  1.0  0.5     2.000       -0.1184367E+03                 0.3137989E-04
                          3P3/2  3.0  1.0  1.5     4.000       -0.1025748E+03                 0.2995242E-04
                          3D3/2  3.0  2.0  1.5     4.000       -0.8626975E+02                 0.3222472E-04
                          3D5/2  3.0  2.0  2.5     6.000       -0.8286728E+02                 0.3175282E-04
                          4S1/2  4.0  0.0  0.5     2.000       -0.2816781E+02                 0.1668735E-04
                          4P1/2  4.0  1.0  0.5     2.000       -0.2395484E+02                 0.1669817E-04
                          4P3/2  4.0  1.0  1.5     4.000       -0.2011425E+02                 0.1516031E-04
                          4D3/2  4.0  2.0  1.5     4.000       -0.1321824E+02                 0.1506585E-04
                          4D5/2  4.0  2.0  2.5     6.000       -0.1250170E+02                 0.1460097E-04
                          5S1/2  5.0  0.0  0.5     2.000       -0.4322160E+01                 0.4190347E-05
                          5P1/2  5.0  1.0  0.5     2.000       -0.2925196E+01                 0.3615407E-05
                          5P3/2  5.0  1.0  1.5     4.000       -0.2244086E+01                 0.2893507E-05
                          4F5/2  4.0  3.0  2.5     6.000       -0.3611586E+01                 0.1388062E-04
                          4F7/2  4.0  3.0  3.5     8.000       -0.3456598E+01                 0.1362401E-04
                          5D3/2  5.0  2.0  1.5     4.000       -0.3813662E+00                 0.1502810E-05
                          5D5/2  5.0  2.0  2.5     6.000       -0.3130964E+00                 0.1345942E-05
                          6S1/2  6.0  0.0  0.5     2.000       -0.2314499E+00                 0.2838078E-06


                                        NUCLEAR CHARGE=   80.000000
                            INTEGRAL OF CHARGE DENSITY=   80.000000
                           SUM OF THE ORBITAL ENERGIES= -12144.2566
                                          TOTAL ENERGY= -19660.7046
                                        KINETIC ENERGY=  22693.9156
                             NUCLEAR ATTRACTION ENERGY= -49622.7822
                             ELECTRON REPULSION ENERGY=   7640.5911
                                       EXCHANGE ENERGY=   -372.4292

 *******************************************************************************

                             D I R A C   E X I T
 NORMAL TERMINATION



 =================
 Timing Statistics
 =================
  
 Total Used :                     CPU=        0.81      System=        0.02     Elapsed=        0.95

 Calls  Section                     ( Mean, Percentage )
 ---------------------------------------------------------------------------------------------------
[...]
 <Jan01-2013> <06:30:22>    4  ErrMat   0.00583714  MaxEl  0.00117572
 <Jan01-2013> <06:30:30>    5  ErrMat   0.00107817  MaxEl  0.00015045
 <Jan01-2013> <06:30:38>    6  ErrMat   0.00055015  MaxEl -0.00007502
 <Jan01-2013> <06:30:46>    7  ErrMat   0.00013123  MaxEl  0.00001683
 <Jan01-2013> <06:30:54>    8  ErrMat   0.00003297  MaxEl -0.00000403
 <Jan01-2013> <06:31:02>    9  ErrMat   0.00001540  MaxEl  0.00000207
 <Jan01-2013> <06:31:10>   10  ErrMat   0.00000294  MaxEl -0.00000030
 <Jan01-2013> <06:31:14>  SCF converged
 <Jan01-2013> <06:31:18>   11  ErrMat   0.00000136  MaxEl  0.00000022
 <Jan01-2013> <06:31:25>  >>>> TOTEN
 <Jan01-2013> <06:31:32>  >>>> POPAN
 <Jan01-2013> <06:31:32>  >>>> DEBYE
 <Jan01-2013> <06:31:33>  >>>> AMETS
 <Jan01-2013> <06:31:33>  >>>> ENGRAD
  Coordinates in Frequency Displacement 88
    Atom         X           Y           Z   (Angstrom)
    1.Hg       -0.636150    1.234858    1.446637
    2.O         1.216889    0.510294    1.529373
    3.H         1.883966    0.743165    0.723411
    4.H         1.358544   -0.447817    1.991457
    5.O        -2.495783    2.005290    1.468385
    6.H        -2.901563    3.014341    1.992686
    7.H        -3.063924    1.684020    0.744222
    8.O         1.481505   -1.657534    2.710330
    9.H         2.049893   -1.671595    3.500957
   10.H         1.621362   -2.504580    2.251472
   11.O        -3.287901    3.997687    2.588777
   12.H        -3.539471    4.769177    2.044652
   13.H        -3.995677    3.843327    3.244711
   14.O         2.735123    1.179672   -0.319638
   15.H         3.534263    1.694337   -0.084928
   16.H         2.986693    0.583082   -1.046568
 <Jan01-2013> <06:33:11>  >>>> CORORT
 <Jan01-2013> <06:33:12>  >>>> FITINT
 <Jan01-2013> <06:33:14>  >>>> CLSMAT
 <Jan01-2013> <06:33:18>  >>>> ORTHON
 <Jan01-2013> <06:33:19>  >>>> GENPT
 <Jan01-2013> <06:33:19>  Acc.Num.Int.=   6.000
 <Jan01-2013> <06:33:19>  Reusing previous cell geometry for gradient smoothing.
 <Jan01-2013> <06:33:19>  Block Length= 128
 <Jan01-2013> <06:33:19>  >>>> PTBAS
 <Jan01-2013> <06:34:38>  >>>> CYCLE
 <Jan01-2013> <06:34:41>    1
 <Jan01-2013> <06:34:49>    2  ErrMat   0.00010619  MaxEl -0.00001999
 <Jan01-2013> <06:34:57>    3  ErrMat   0.00005550  MaxEl -0.00000927
 <Jan01-2013> <06:35:05>    4  ErrMat   0.00003090  MaxEl  0.00000403
 <Jan01-2013> <06:35:12>    5  ErrMat   0.00001626  MaxEl -0.00000309
 <Jan01-2013> <06:35:20>    6  ErrMat   0.00000231  MaxEl  0.00000029
 <Jan01-2013> <06:35:23>  SCF converged
 <Jan01-2013> <06:35:26>    7  ErrMat   0.00000152  MaxEl -0.00000024
 <Jan01-2013> <06:35:33>  >>>> TOTEN
 <Jan01-2013> <06:35:43>  >>>> POPAN
 <Jan01-2013> <06:35:43>  >>>> DEBYE
 <Jan01-2013> <06:35:43>  >>>> AMETS
 <Jan01-2013> <06:35:43>  >>>> ENGRAD
  Coordinates in Frequency Displacement 89
    Atom         X           Y           Z   (Angstrom)
    1.Hg       -0.636150    1.234858    1.446637
    2.O         1.216889    0.510294    1.529373
    3.H         1.883966    0.743165    0.723411
    4.H         1.358544   -0.447817    1.991457
    5.O        -2.495783    2.005290    1.468385
    6.H        -2.901563    3.014341    1.992686
    7.H        -3.063924    1.684020    0.744222
    8.O         1.481505   -1.657534    2.710330
    9.H         2.049893   -1.671595    3.500957
   10.H         1.621362   -2.504580    2.251472
   11.O        -3.287901    3.997687    2.588777
   12.H        -3.539471    4.769177    2.044652
   13.H        -3.995677    3.843327    3.244711
   14.O         2.735123    1.179672   -0.319638
   15.H         3.534263    1.684337   -0.094928
   16.H         2.986693    0.583082   -1.046568
 <Jan01-2013> <06:37:21>  >>>> CORORT
 <Jan01-2013> <06:37:21>  >>>> FITINT
 <Jan01-2013> <06:37:24>  >>>> CLSMAT
 <Jan01-2013> <06:37:28>  >>>> ORTHON
 <Jan01-2013> <06:37:28>  >>>> GENPT
 <Jan01-2013> <06:37:28>  Acc.Num.Int.=   6.000
 <Jan01-2013> <06:37:28>  Reusing previous cell geometry for gradient smoothing.
 <Jan01-2013> <06:37:28>  Block Length= 128
 <Jan01-2013> <06:37:29>  >>>> PTBAS
 <Jan01-2013> <06:38:52>  >>>> CYCLE
 <Jan01-2013> <06:38:56>    1
 <Jan01-2013> <06:39:01>    2  ErrMat   0.01296135  MaxEl -0.00330475
 <Jan01-2013> <06:39:07>    3  ErrMat   0.00831785  MaxEl -0.00218014
 <Jan01-2013> <06:39:15>    4  ErrMat   0.00886981  MaxEl  0.00153462
 <Jan01-2013> <06:39:23>    5  ErrMat   0.00106863  MaxEl -0.00012700
 <Jan01-2013> <06:39:32>    6  ErrMat   0.00045490  MaxEl  0.00006232
 <Jan01-2013> <06:39:40>    7  ErrMat   0.00013495  MaxEl -0.00001827
 <Jan01-2013> <06:39:49>    8  ErrMat   0.00003390  MaxEl -0.00000429
 <Jan01-2013> <06:39:57>    9  ErrMat   0.00001191  MaxEl  0.00000124
 <Jan01-2013> <06:40:07>   10  ErrMat   0.00000249  MaxEl -0.00000036
 <Jan01-2013> <06:40:11>  SCF converged
 <Jan01-2013> <06:40:15>   11  ErrMat   0.00000077  MaxEl  0.00000007
 <Jan01-2013> <06:40:22>  >>>> TOTEN
 <Jan01-2013> <06:40:32>  >>>> POPAN
 <Jan01-2013> <06:40:32>  >>>> DEBYE
 <Jan01-2013> <06:40:32>  >>>> AMETS
 <Jan01-2013> <06:40:33>  >>>> ENGRAD
  Coordinates in Frequency Displacement 90
    Atom         X           Y           Z   (Angstrom)
    1.Hg       -0.636150    1.234858    1.446637
    2.O         1.216889    0.510294    1.529373
    3.H         1.883966    0.743165    0.723411
    4.H         1.358544   -0.447817    1.991457
    5.O        -2.495783    2.005290    1.468385
    6.H        -2.901563    3.014341    1.992686
    7.H        -3.063924    1.684020    0.744222
    8.O         1.481505   -1.657534    2.710330
    9.H         2.049893   -1.671595    3.500957
   10.H         1.621362   -2.504580    2.251472
   11.O        -3.287901    3.997687    2.588777
   12.H        -3.539471    4.769177    2.044652
   13.H        -3.995677    3.843327    3.244711
   14.O         2.735123    1.179672   -0.319638
   15.H         3.534263    1.684337   -0.074928
   16.H         2.986693    0.583082   -1.046568
 <Jan01-2013> <06:42:12>  >>>> CORORT
 <Jan01-2013> <06:42:12>  >>>> FITINT
 <Jan01-2013> <06:42:15>  >>>> CLSMAT
 <Jan01-2013> <06:42:18>  >>>> ORTHON
 <Jan01-2013> <06:42:18>  >>>> GENPT
 <Jan01-2013> <06:42:18>  Acc.Num.Int.=   6.000
 <Jan01-2013> <06:42:18>  Reusing previous cell geometry for gradient smoothing.
 <Jan01-2013> <06:42:19>  Block Length= 128
 <Jan01-2013> <06:42:19>  >>>> PTBAS
 <Jan01-2013> <06:43:29>  >>>> CYCLE
 <Jan01-2013> <06:43:33>    1
 <Jan01-2013> <06:43:40>    2  ErrMat   0.00004055  MaxEl -0.00000696
 <Jan01-2013> <06:43:48>    3  ErrMat   0.00002690  MaxEl -0.00000486
 <Jan01-2013> <06:43:55>    4  ErrMat   0.00002910  MaxEl -0.00000543
 <Jan01-2013> <06:44:02>    5  ErrMat   0.00000489  MaxEl  0.00000058
 <Jan01-2013> <06:44:06>  SCF converged
 <Jan01-2013> <06:44:10>    6  ErrMat   0.00000180  MaxEl  0.00000025
 <Jan01-2013> <06:44:17>  >>>> TOTEN
 <Jan01-2013> <06:44:27>  >>>> POPAN
 <Jan01-2013> <06:44:27>  >>>> DEBYE
 <Jan01-2013> <06:44:27>  >>>> AMETS
 <Jan01-2013> <06:44:27>  >>>> ENGRAD
  Coordinates in Frequency Displacement 91
    Atom         X           Y           Z   (Angstrom)
    1.Hg       -0.636150    1.234858    1.446637
    2.O         1.216889    0.510294    1.529373
    3.H         1.883966    0.743165    0.723411
    4.H         1.358544   -0.447817    1.991457
    5.O        -2.495783    2.005290    1.468385
    6.H        -2.901563    3.014341    1.992686
    7.H        -3.063924    1.684020    0.744222
    8.O         1.481505   -1.657534    2.710330
    9.H         2.049893   -1.671595    3.500957
   10.H         1.621362   -2.504580    2.251472
   11.O        -3.287901    3.997687    2.588777
   12.H        -3.539471    4.769177    2.044652
   13.H        -3.995677    3.843327    3.244711
   14.O         2.735123    1.179672   -0.319638
   15.H         3.534263    1.684337   -0.084928
   16.H         2.976693    0.583082   -1.046568
 <Jan01-2013> <06:46:05>  >>>> CORORT
 <Jan01-2013> <06:46:05>  >>>> FITINT
 <Jan01-2013> <06:46:08>  >>>> CLSMAT
 <Jan01-2013> <06:46:12>  >>>> ORTHON
 <Jan01-2013> <06:46:12>  >>>> GENPT
 <Jan01-2013> <06:46:12>  Acc.Num.Int.=   6.000
 <Jan01-2013> <06:46:12>  Reusing previous cell geometry for gradient smoothing.
 <Jan01-2013> <06:46:13>  Block Length= 128
 <Jan01-2013> <06:46:13>  >>>> PTBAS
 <Jan01-2013> <06:47:26>  >>>> CYCLE
 <Jan01-2013> <06:47:30>    1
 <Jan01-2013> <06:47:38>    2  ErrMat   0.01394783  MaxEl -0.00281138
 <Jan01-2013> <06:47:46>    3  ErrMat   0.00836306  MaxEl -0.00186992
 <Jan01-2013> <06:47:53>    4  ErrMat   0.00575375  MaxEl -0.00087579
 <Jan01-2013> <06:48:06>    5  ErrMat   0.00145695  MaxEl  0.00019707
 <Jan01-2013> <06:48:14>    6  ErrMat   0.00045005  MaxEl -0.00005990
 <Jan01-2013> <06:48:22>    7  ErrMat   0.00014038  MaxEl -0.00001856
 <Jan01-2013> <06:48:30>    8  ErrMat   0.00003355  MaxEl -0.00000394
 <Jan01-2013> <06:48:38>    9  ErrMat   0.00001536  MaxEl  0.00000215
 <Jan01-2013> <06:48:46>   10  ErrMat   0.00000402  MaxEl -0.00000036
 <Jan01-2013> <06:48:49>  SCF converged
 <Jan01-2013> <06:48:53>   11  ErrMat   0.00000124  MaxEl -0.00000013
 <Jan01-2013> <06:49:01>  >>>> TOTEN
 <Jan01-2013> <06:49:10>  >>>> POPAN
 <Jan01-2013> <06:49:10>  >>>> DEBYE
 <Jan01-2013> <06:49:11>  >>>> AMETS
 <Jan01-2013> <06:49:11>  >>>> ENGRAD
  Coordinates in Frequency Displacement 92
    Atom         X           Y           Z   (Angstrom)
    1.Hg       -0.636150    1.234858    1.446637
    2.O         1.216889    0.510294    1.529373
    3.H         1.883966    0.743165    0.723411
    4.H         1.358544   -0.447817    1.991457
    5.O        -2.495783    2.005290    1.468385
    6.H        -2.901563    3.014341    1.992686
    7.H        -3.063924    1.684020    0.744222
    8.O         1.481505   -1.657534    2.710330
    9.H         2.049893   -1.671595    3.500957
   10.H         1.621362   -2.504580    2.251472
   11.O        -3.287901    3.997687    2.588777
   12.H        -3.539471    4.769177    2.044652
   13.H        -3.995677    3.843327    3.244711
   14.O         2.735123    1.179672   -0.319638
   15.H         3.534263    1.684337   -0.084928
   16.H         2.996693    0.583082   -1.046568
 <Jan01-2013> <06:50:45>  >>>> CORORT
 <Jan01-2013> <06:50:45>  >>>> FITINT
 <Jan01-2013> <06:50:48>  >>>> CLSMAT
 <Jan01-2013> <06:50:52>  >>>> ORTHON
 <Jan01-2013> <06:50:53>  >>>> GENPT
 <Jan01-2013> <06:50:53>  Acc.Num.Int.=   6.000
 <Jan01-2013> <06:50:53>  Reusing previous cell geometry for gradient smoothing.
 <Jan01-2013> <06:50:53>  Block Length= 128
 <Jan01-2013> <06:50:54>  >>>> PTBAS
 <Jan01-2013> <06:52:11>  >>>> CYCLE
 <Jan01-2013> <06:52:14>    1
 <Jan01-2013> <06:52:22>    2  ErrMat   0.00004358  MaxEl -0.00000810
 <Jan01-2013> <06:52:29>    3  ErrMat   0.00002709  MaxEl -0.00000548
 <Jan01-2013> <06:52:37>    4  ErrMat   0.00002343  MaxEl  0.00000324
 <Jan01-2013> <06:52:47>    5  ErrMat   0.00000722  MaxEl -0.00000116
 <Jan01-2013> <06:52:57>    6  ErrMat   0.00000189  MaxEl -0.00000028
 <Jan01-2013> <06:53:01>  SCF converged
 <Jan01-2013> <06:53:05>    7  ErrMat   0.00000053  MaxEl -0.00000006
 <Jan01-2013> <06:53:12>  >>>> TOTEN
 <Jan01-2013> <06:53:21>  >>>> POPAN
 <Jan01-2013> <06:53:21>  >>>> DEBYE
 <Jan01-2013> <06:53:21>  >>>> AMETS
 <Jan01-2013> <06:53:21>  >>>> ENGRAD
  Coordinates in Frequency Displacement 93
    Atom         X           Y           Z   (Angstrom)
    1.Hg       -0.636150    1.234858    1.446637
    2.O         1.216889    0.510294    1.529373
    3.H         1.883966    0.743165    0.723411
    4.H         1.358544   -0.447817    1.991457
    5.O        -2.495783    2.005290    1.468385
    6.H        -2.901563    3.014341    1.992686
    7.H        -3.063924    1.684020    0.744222
    8.O         1.481505   -1.657534    2.710330
    9.H         2.049893   -1.671595    3.500957
   10.H         1.621362   -2.504580    2.251472
   11.O        -3.287901    3.997687    2.588777
   12.H        -3.539471    4.769177    2.044652
   13.H        -3.995677    3.843327    3.244711
   14.O         2.735123    1.179672   -0.319638
   15.H         3.534263    1.684337   -0.084928
   16.H         2.986693    0.573082   -1.046568
 <Jan01-2013> <06:54:55>  >>>> CORORT
 <Jan01-2013> <06:54:55>  >>>> FITINT
 <Jan01-2013> <06:54:57>  >>>> CLSMAT
 <Jan01-2013> <06:55:00>  >>>> ORTHON
 <Jan01-2013> <06:55:01>  >>>> GENPT
 <Jan01-2013> <06:55:01>  Acc.Num.Int.=   6.000
 <Jan01-2013> <06:55:01>  Reusing previous cell geometry for gradient smoothing.
 <Jan01-2013> <06:55:01>  Block Length= 128
 <Jan01-2013> <06:55:01>  >>>> PTBAS
 <Jan01-2013> <06:56:20>  >>>> CYCLE
 <Jan01-2013> <06:56:24>    1
 <Jan01-2013> <06:56:32>    2  ErrMat   0.01653203  MaxEl -0.00371348
 <Jan01-2013> <06:56:40>    3  ErrMat   0.00909950  MaxEl -0.00191090
 <Jan01-2013> <06:56:49>    4  ErrMat   0.00531015  MaxEl  0.00106803
 <Jan01-2013> <06:56:57>    5  ErrMat   0.00163944  MaxEl  0.00030563
 <Jan01-2013> <06:57:05>    6  ErrMat   0.00049699  MaxEl -0.00008617
 <Jan01-2013> <06:57:13>    7  ErrMat   0.00015769  MaxEl  0.00002496
 <Jan01-2013> <06:57:21>    8  ErrMat   0.00004061  MaxEl -0.00000615
 <Jan01-2013> <06:57:29>    9  ErrMat   0.00001798  MaxEl  0.00000208
 <Jan01-2013> <06:57:37>   10  ErrMat   0.00000412  MaxEl  0.00000043
 <Jan01-2013> <06:57:40>  SCF converged
 <Jan01-2013> <06:57:45>   11  ErrMat   0.00000107  MaxEl -0.00000014
 <Jan01-2013> <06:57:53>  >>>> TOTEN
 <Jan01-2013> <06:58:00>  >>>> POPAN
 <Jan01-2013> <06:58:00>  >>>> DEBYE
 <Jan01-2013> <06:58:00>  >>>> AMETS
 <Jan01-2013> <06:58:00>  >>>> ENGRAD
  Coordinates in Frequency Displacement 94
    Atom         X           Y           Z   (Angstrom)
    1.Hg       -0.636150    1.234858    1.446637
    2.O         1.216889    0.510294    1.529373
    3.H         1.883966    0.743165    0.723411
    4.H         1.358544   -0.447817    1.991457
    5.O        -2.495783    2.005290    1.468385
    6.H        -2.901563    3.014341    1.992686
    7.H        -3.063924    1.684020    0.744222
    8.O         1.481505   -1.657534    2.710330
    9.H         2.049893   -1.671595    3.500957
   10.H         1.621362   -2.504580    2.251472
   11.O        -3.287901    3.997687    2.588777
   12.H        -3.539471    4.769177    2.044652
   13.H        -3.995677    3.843327    3.244711
   14.O         2.735123    1.179672   -0.319638
   15.H         3.534263    1.684337   -0.084928
   16.H         2.986693    0.593082   -1.046568
 <Jan01-2013> <06:59:36>  >>>> CORORT
 <Jan01-2013> <06:59:37>  >>>> FITINT
 <Jan01-2013> <06:59:39>  >>>> CLSMAT
 <Jan01-2013> <06:59:43>  >>>> ORTHON
 <Jan01-2013> <06:59:44>  >>>> GENPT
 <Jan01-2013> <06:59:44>  Acc.Num.Int.=   6.000
 <Jan01-2013> <06:59:44>  Reusing previous cell geometry for gradient smoothing.
 <Jan01-2013> <06:59:44>  Block Length= 128
 <Jan01-2013> <06:59:44>  >>>> PTBAS
 <Jan01-2013> <07:01:03>  >>>> CYCLE
 <Jan01-2013> <07:01:06>    1
 <Jan01-2013> <07:01:14>    2  ErrMat   0.00014245  MaxEl  0.00002979
 <Jan01-2013> <07:01:22>    3  ErrMat   0.00007365  MaxEl  0.00001450
 <Jan01-2013> <07:01:30>    4  ErrMat   0.00003200  MaxEl -0.00000557
 <Jan01-2013> <07:01:37>    5  ErrMat   0.00000753  MaxEl  0.00000120
 <Jan01-2013> <07:01:42>    6  ErrMat   0.00000396  MaxEl  0.00000080
 <Jan01-2013> <07:01:45>  SCF converged
 <Jan01-2013> <07:01:49>    7  ErrMat   0.00000155  MaxEl -0.00000022
 <Jan01-2013> <07:01:57>  >>>> TOTEN
 <Jan01-2013> <07:02:06>  >>>> POPAN
 <Jan01-2013> <07:02:06>  >>>> DEBYE
 <Jan01-2013> <07:02:06>  >>>> AMETS
 <Jan01-2013> <07:02:07>  >>>> ENGRAD
  Coordinates in Frequency Displacement 95
    Atom         X           Y           Z   (Angstrom)
    1.Hg       -0.636150    1.234858    1.446637
    2.O         1.216889    0.510294    1.529373
    3.H         1.883966    0.743165    0.723411
    4.H         1.358544   -0.447817    1.991457
    5.O        -2.495783    2.005290    1.468385
    6.H        -2.901563    3.014341    1.992686
    7.H        -3.063924    1.684020    0.744222
    8.O         1.481505   -1.657534    2.710330
    9.H         2.049893   -1.671595    3.500957
   10.H         1.621362   -2.504580    2.251472
   11.O        -3.287901    3.997687    2.588777
   12.H        -3.539471    4.769177    2.044652
   13.H        -3.995677    3.843327    3.244711
   14.O         2.735123    1.179672   -0.319638
   15.H         3.534263    1.684337   -0.084928
   16.H         2.986693    0.583082   -1.056568
 <Jan01-2013> <07:03:46>  >>>> CORORT
 <Jan01-2013> <07:03:46>  >>>> FITINT
 <Jan01-2013> <07:03:49>  >>>> CLSMAT
 <Jan01-2013> <07:03:52>  >>>> ORTHON
 <Jan01-2013> <07:03:53>  >>>> GENPT
 <Jan01-2013> <07:03:53>  Acc.Num.Int.=   6.000
 <Jan01-2013> <07:03:53>  Reusing previous cell geometry for gradient smoothing.
 <Jan01-2013> <07:03:53>  Block Length= 128
 <Jan01-2013> <07:03:53>  >>>> PTBAS
 <Jan01-2013> <07:05:07>  >>>> CYCLE
 <Jan01-2013> <07:05:09>    1
 <Jan01-2013> <07:05:18>    2  ErrMat   0.01890724  MaxEl -0.00392193
 <Jan01-2013> <07:05:26>    3  ErrMat   0.00970081  MaxEl -0.00192437
 <Jan01-2013> <07:05:34>    4  ErrMat   0.00519515  MaxEl  0.00080696
 <Jan01-2013> <07:05:41>    5  ErrMat   0.00228912  MaxEl -0.00031118
 <Jan01-2013> <07:05:49>    6  ErrMat   0.00047859  MaxEl  0.00006999
 <Jan01-2013> <07:05:57>    7  ErrMat   0.00015268  MaxEl -0.00001503
 <Jan01-2013> <07:06:05>    8  ErrMat   0.00003154  MaxEl -0.00000381
 <Jan01-2013> <07:06:13>    9  ErrMat   0.00001903  MaxEl -0.00000235
 <Jan01-2013> <07:06:19>   10  ErrMat   0.00000335  MaxEl  0.00000034
 <Jan01-2013> <07:06:21>  SCF converged
 <Jan01-2013> <07:06:25>   11  ErrMat   0.00000137  MaxEl  0.00000022
 <Jan01-2013> <07:06:32>  >>>> TOTEN
 <Jan01-2013> <07:06:41>  >>>> POPAN
 <Jan01-2013> <07:06:41>  >>>> DEBYE
 <Jan01-2013> <07:06:41>  >>>> AMETS
 <Jan01-2013> <07:06:41>  >>>> ENGRAD
  Coordinates in Frequency Displacement 96
    Atom         X           Y           Z   (Angstrom)
    1.Hg       -0.636150    1.234858    1.446637
    2.O         1.216889    0.510294    1.529373
    3.H         1.883966    0.743165    0.723411
    4.H         1.358544   -0.447817    1.991457
    5.O        -2.495783    2.005290    1.468385
    6.H        -2.901563    3.014341    1.992686
    7.H        -3.063924    1.684020    0.744222
    8.O         1.481505   -1.657534    2.710330
    9.H         2.049893   -1.671595    3.500957
   10.H         1.621362   -2.504580    2.251472
   11.O        -3.287901    3.997687    2.588777
   12.H        -3.539471    4.769177    2.044652
   13.H        -3.995677    3.843327    3.244711
   14.O         2.735123    1.179672   -0.319638
   15.H         3.534263    1.684337   -0.084928
   16.H         2.986693    0.583082   -1.036568
 <Jan01-2013> <07:08:15>  >>>> CORORT
 <Jan01-2013> <07:08:15>  >>>> FITINT
 <Jan01-2013> <07:08:17>  >>>> CLSMAT
 <Jan01-2013> <07:08:21>  >>>> ORTHON
 <Jan01-2013> <07:08:22>  >>>> GENPT
 <Jan01-2013> <07:08:22>  Acc.Num.Int.=   6.000
 <Jan01-2013> <07:08:22>  Reusing previous cell geometry for gradient smoothing.
 <Jan01-2013> <07:08:22>  Block Length= 128
 <Jan01-2013> <07:08:22>  >>>> PTBAS
 <Jan01-2013> <07:09:40>  >>>> CYCLE
 <Jan01-2013> <07:09:44>    1
 <Jan01-2013> <07:09:52>    2  ErrMat   0.00021480  MaxEl  0.00003919
 <Jan01-2013> <07:10:04>    3  ErrMat   0.00009947  MaxEl  0.00001868
 <Jan01-2013> <07:10:12>    4  ErrMat   0.00004442  MaxEl  0.00000686
 <Jan01-2013> <07:10:20>    5  ErrMat   0.00003107  MaxEl -0.00000593
 <Jan01-2013> <07:10:28>    6  ErrMat   0.00000339  MaxEl  0.00000045
 <Jan01-2013> <07:10:32>  SCF converged
 <Jan01-2013> <07:10:36>    7  ErrMat   0.00000246  MaxEl -0.00000038
 <Jan01-2013> <07:10:43>  >>>> TOTEN
 <Jan01-2013> <07:10:52>  >>>> POPAN
 <Jan01-2013> <07:10:53>  >>>> DEBYE
 <Jan01-2013> <07:10:53>  >>>> AMETS
 <Jan01-2013> <07:10:53>  >>>> ENGRAD
 <Jan01-2013> <07:12:25>  Force Constants computed
 <Jan01-2013> <07:12:25>  NORMAL TERMINATION
 <Jan01-2013> <07:12:25>  END
 <Jan01-2013> <07:12:25>  Total Bonding Energy: -42.71017096 au
