
 *******************************************************************************
 *                                                                             *
 *  -------------------------------------                                      *
 *   Amsterdam Density Functional  (ADF)         2013.01   April 2, 2013       *
 *  -------------------------------------                                      *
 *                                               Build 201304112106            *
 *                                                                             *
 *                                                                             *
 *                            =====================                            *
 *                            |                   |                            *
 *                            |     D I R A C     |                            *
 *                            |                   |                            *
 *                            =====================                            *
 *                                                                             *
 *                                                                             *
 *   Online information and documentation:  http://www.scm.com                 *
 *   E-mail:  support@scm.com   info@scm.com                                   *
 *                                                                             *
 *   Scientific publications using ADF results must be properly referenced     *
 *   See the User Manuals (or the web site) for recommended citations          *
 *   The terms and conditions of the End User License Agreement apply to       *
 *   the use of ADF, http://www.scm.com/Sales/LicAgreement.html                *
 *                                                                             *
 ****************************  x86_64_linux_intel  *****************************
 
 Licensed to: Prof. Cacier Hadad / University of Antioquia / Medellin / COLOMBIA
 SCM User ID: u15319
  
 DIRAC 2013.01  RunTime: Jan01-2013 00:00:00  Nodes: 1  Procs: 1

 Temporary files are created in /tmp/kid_0.g8toTs

1
 HYDROGEN ATOM RELATIVISTIC, Point Nuc, A and c from libtc   
 N J RN H ZN XION ANUC CLIGHT
 5000    1100.00000000197.36710137  1.00000000  0.00000000    1.007825  0.1370360E+03
  PH   PHI     EPS        DEL        DELRVR
  0.30  0.30     2500.00  0.00001000  0.00001000
 IDIRC  NC1  NDEBU NPRIN  IPUN IRCOR IWCOR
   1   300     0     0     0     0     0
   XALPHA      XLATTER      RNUC
  0.70000000  0.00000000  0.00000000 Point Charge
   XN   XL   XJ      XE          XZ      XDELL
  1.0  0.0  0.5      -1.000       1.000     0.00000
 ICORP=  0  NPCL=  0  DEMP=0.00  PEPS=0.000000
 R(1)=  0.1000000E-08 D=  0.1005080E+01 RNUC=  0.0000000E+00
 converged at cycle   32  DENSITY AVERAGING    0.2400
  MAXIMUM ERROR IN R.V(R) IS   0.79874357E-05
 Q,EY,EV,EZ,ESUM,ETOT,RHO  0.100000E+01 -0.266614E+00 -0.619969E+00 -0.910779E+00 -0.203940E+00 -0.415998E+00  0.337036E-17


 DIRAC CALCULATION
1                    HYDROGEN ATOM RELATIVISTIC, Point Nuc, A and c from libtc


 EXCHANGE COEFFICIENT=  0.7000000           TAIL CORRECTION=  0.           NUCLEAR RADIUS=  0.000E+00
0                       ORBITAL    N    L    J     ELECTRONS     EIGENVALUE                DELTA OF EIGENV.

                          1S1/2  1.0  0.0  0.5     1.000       -0.2039397E+00                 0.2720093E-06


                                        NUCLEAR CHARGE=    1.000000
                            INTEGRAL OF CHARGE DENSITY=    1.000000
                           SUM OF THE ORBITAL ENERGIES=     -0.2039
                                          TOTAL ENERGY=     -0.4160
                                        KINETIC ENERGY=      0.4160
                             NUCLEAR ATTRACTION ENERGY=     -0.9108
                             ELECTRON REPULSION ENERGY=      0.2787
                                       EXCHANGE ENERGY=     -0.2000

 *******************************************************************************

                             D I R A C   E X I T
 NORMAL TERMINATION



 =================
 Timing Statistics
 =================
  
 Total Used :                     CPU=        0.09      System=        0.02     Elapsed=        0.30

 Calls  Section                     ( Mean, Percentage )
 ---------------------------------------------------------------------------------------------------
     2  ><      ................      0.00    0.00             0.00    0.05             0.00    0.00
     1  EXIT PROCEDURE .........      0.09  100.00             0.02   99.95             0.30  100.00


 Currently Open Files (EXIT00)
 ====================

 Unit    Access Format  Status   Type       Ident (file)
 -------------------------------------------------------
   3      SEQ    FORM   TRANSP  NORMAL      LOGFILE
                                          ( logfile )


 Buffered I/O statistics
 =======================
 Memory available:                     67108864
 Number of records fitting in memory:     16131
 Input : 100.0% of                            0  *4k bytes
 Output: 100.0% of                            0  *4k bytes
 Records from serial files evicted:           0
                    others evicted:           0
 Hash table lookups:          0 with          0 conflicts (100.00%)
(INPUT FILE)
Create H   file=/home/andyzapa/adf2013.01/atomicdata/ZORA/QZ4P/H
XC
GGA PBE
End
relativistic ZORA
Corepotentials t12.rel
End Input

 *******************************************************************************
 *                                                                             *
 *  -------------------------------------                                      *
 *   Amsterdam Density Functional  (ADF)         2013.01   April 2, 2013       *
 *  -------------------------------------                                      *
 *                                               Build 201304112215            *
 *                                                                             *
 *                                                                             *
 *                              =================                              *
 *                              |               |                              *
 *                              |     A D F     |                              *
 *                              |               |                              *
 *                              =================                              *
 *                                                                             *
 *                                                                             *
 *   Online information and documentation:  http://www.scm.com                 *
 *   E-mail:  support@scm.com   info@scm.com                                   *
 *                                                                             *
 *   Scientific publications using ADF results must be properly referenced     *
 *   See the User Manuals (or the web site) for recommended citations          *
 *   The terms and conditions of the End User License Agreement apply to       *
 *   the use of ADF, http://www.scm.com/Sales/LicAgreement.html                *
 *                                                                             *
 ********************  x86_64_linux_intel / platform_mpi  **********************
 
 Licensed to: Prof. Cacier Hadad / University of Antioquia / Medellin / COLOMBIA
 SCM User ID: u15319
  
 ADF 2013.01  RunTime: Jan01-2013 00:00:01  Nodes: 1  Procs: 1

 Temporary files are created in /tmp/kid_0.PNpd3W

 Hydrogen (QZ, all electron, 5S 2P 2D)



 ===========================
 A T T A C H E D   F I L E S
 ===========================
  
 CREATE - Data File:    /home/andyzapa/adf2013.01/atomicdata/ZORA/QZ4P/H
                        Hydrogen (QZ, all electron, 5S 2P 2D)
 Core Potentials:
         file : t12.rel



 ===============================
 M O D E L   P A R A M E T E R S
 ===============================
  
 DENSITY FUNCTIONAL POTENTIAL (scf)
    LDA:                               PW92                                    == Not Default ==
    Gradient Corrections:              PBEc PBEx                               == Not Default ==

 SPIN  (restricted / unrestr.)
    Molecule:                          Restricted                               

 OTHER ASPECTS
    Relativistic Corrections:          scalar (ZORA,SAPA)                      == Not Default ==

    Nuclear Charge Density Model:      Point Charge Nuclei                                                                                                                                                                                     
    Core Treatment:                    Frozen Orbital(s)                        

    Hyperfine or Zeeman Interaction:   ---                                      



 =====================================
 S Y M M E T R Y ,   E L E C T R O N S
 =====================================
  
 Symmetry: ATOM

 Irreducible Representations, including subspecies
 -------------------------------------------------
 S
 P:x  P:y  P:z
 D:z2  D:x2-y2  D:xy  D:xz  D:yz
 F:z3  F:z  F:xyz  F:z2x  F:z2y  F:x  F:y


 Configuration of Valence Electrons
 ==================================

          Occupation Numbers
          -------------------------------------------------
 S        1
 P        0
 D        0
 F        0
          -------------------------------------------------

 Total:   1

 Net Charge: 0 (Nuclei minus Electrons)

 Preset values for MO occupations will be applied through SCF cycle no. 1000000
 Thereafter, the program will assign electrons to MOs that are spatially
 similar to the occupied MOs in a "reference" cycle ("KeepOrbitals").
 The reference cycle is always the PREVIOUS cycle: it will evolve with
 the SCF procedure.



 ================================
 (Slater-type)  F U N C T I O N S  ***  (Basis and Fit)  ***
 ================================
  

 Atom Type    1  (H)
 ==============

 Valence Basis Sets:   9
 -----------------------
   1 S    3.300000
   1 S    2.000000
   1 S    1.400000
   1 S    1.000000
   1 S    0.710000
   2 P    2.000000
   2 P    1.000000
   3 D    2.500000
   3 D    1.500000

 Charge Fitting Sets (for the computation of the Coulomb Potential):  22
 -----------------------------------------------------------------------
   1 S    6.600000
   1 S    4.620000
   1 S    3.230000
   1 S    2.260000
   1 S    1.580000
   1 S    1.100000
   1 S    0.770000
   2 S    1.000000
   2 P    5.300000
   2 P    3.870000
   2 P    2.820000
   2 P    2.060000
   2 P    1.500000
   3 D    5.800000
   3 D    4.070000
   3 D    2.850000
   3 D    2.000000
   4 F    4.500000
   4 F    3.350000
   4 F    2.500000
   5 G    5.000000
   5 G    3.000000


 BAS: List of all Elementary Cartesian Basis Functions
 =====================================================

 The numbering in the list below (to the right of the function characteristics) is referred
 to in print-outs of MO eigenvectors and Mulliken populations in the BAS representation
 (as contrasted to the SFO representation).

 Notes:
 1. The functions are characterized by a polynomial prefactor (powers of x,y,z and r) and
    an exponential decay factor alpha.
 2. Since the basis sets are specific for an atom TYPE, the individual functions occur on
    all atoms of that type.
 3. The word 'Core' in the left margin signals that it is a Core Function (CF) : not a
    degree of freedom in the valence set, but only used to ensure orthogonalization of
    the other valence basis functions on the frozen Core Orbitals.


 (power of) X  Y  Z  R     Alpha  on Atom
            ==========     =====     ==========

 H                                    1
                                  ---------------------------------------------------------------------------
            0  0  0  0     3.300      1
            0  0  0  0     2.000      2
            0  0  0  0     1.400      3
            0  0  0  0     1.000      4
            0  0  0  0     0.710      5
            1  0  0  0     2.000      6
            0  1  0  0     2.000      7
            0  0  1  0     2.000      8
            1  0  0  0     1.000      9
            0  1  0  0     1.000     10
            0  0  1  0     1.000     11
            2  0  0  0     2.500     12
            1  1  0  0     2.500     13
            1  0  1  0     2.500     14
            0  2  0  0     2.500     15
            0  1  1  0     2.500     16
            0  0  2  0     2.500     17
            2  0  0  0     1.500     18
            1  1  0  0     1.500     19
            1  0  1  0     1.500     20
            0  2  0  0     1.500     21
            0  1  1  0     1.500     22
            0  0  2  0     1.500     23

 Total number of charge fitting functions (nprimf)       107
 Total number of Cartesian basis functions (naos)         23
 Total number of Cartesian core functions  (ncos)          0



 BAS: List of all Elementary Cartesian Basis Functions
 =====================================================

 The numbering in the list below (to the right of the function characteristics) is referred
 to in print-outs of MO eigenvectors and Mulliken populations in the BAS representation
 (as contrasted to the SFO representation).

 Notes:
 1. The functions are characterized by a polynomial prefactor (powers of x,y,z and r) and
    an exponential decay factor alpha.
 2. Since the basis sets are specific for an atom TYPE, the individual functions occur on
    all atoms of that type.
 3. The word 'Core' in the left margin signals that it is a Core Function (CF) : not a
    degree of freedom in the valence set, but only used to ensure orthogonalization of
    the other valence basis functions on the frozen Core Orbitals.


 (power of) X  Y  Z  R     Alpha  on Atom
            ==========     =====     ==========

 H                                    1
                                  ---------------------------------------------------------------------------
            0  0  0  0     3.300      1
            0  0  0  0     2.000      2
            0  0  0  0     1.400      3
            0  0  0  0     1.000      4
            0  0  0  0     0.710      5
            1  0  0  0     2.000      6
            0  1  0  0     2.000      7
            0  0  1  0     2.000      8
            1  0  0  0     1.000      9
            0  1  0  0     1.000     10
            0  0  1  0     1.000     11
            2  0  0  0     2.500     12
            1  1  0  0     2.500     13
            1  0  1  0     2.500     14
            0  2  0  0     2.500     15
            0  1  1  0     2.500     16
            0  0  2  0     2.500     17
            2  0  0  0     1.500     18
            1  1  0  0     1.500     19
            1  0  1  0     1.500     20
            0  2  0  0     1.500     21
            0  1  1  0     1.500     22
            0  0  2  0     1.500     23
1
 ***************************************************************************************************



                                              ***********************
                                              *  T E C H N I C A L  *
                                              ***********************
  



 =============================================================
 P A R A L L E L I Z A T I O N  and  V E C T O R I Z A T I O N
 =============================================================
  
 Nr of parallel processes:                                1
 Maximum vector length in NumInt loops:                 128



 ===============
 I O  vs.  C P U  ***  (store numerical data on disk or recalculate)  ***
 ===============
  
 Basis functions:   recalculate when needed
 Fit functions:     recalculate when needed

 IO buffersize (Mb):                                     64.000000



 =====================
 S C F   U P D A T E S
 =====================
  
 Max. nr. of cycles:                               100
 Convergence criterion:                              0.0000000100
   secondary criterion:                              0.0000000100

 Mix parameter (when DIIS does not apply):           0.2000000000
 Special mix parameter for the first cycle:          1.0000000000


 DIIS (Direct Inversion in Iteration Space)
    Replace damping when SCF Error is below:         0.5000000000
    Apply anyway after SCF cycle:
                                                     5
    (Max.) nr. of expansion vectors:                10

    Upperbound on expansion coefficients:            5.0000000000
    (when exceeded, IterationSpace is re-built)
    2nd Upperbound on coefficients:                 25.0000000000
    (when exceeded, simple damping will be used)
 Automatic ElectronSmearing (in case of problematic SCF convergence) disabled



 =================
 P R E C I S I O N  ***  (General: NumInt, NeglectFunctionTails, ...)  ***
 =================
  

 NumInt:           Target precision:                10.0000000000
 -------           Initial precision:               10.0000000000
                   Min. precision (optimization):   10.0000000000

 Neglect Functions:          Basis functions:        0.1000000000E-11
 ------------------          Fit functions:          0.1000000000E-11



 ===========================
 L I N E A R   S C A L I N G
 ===========================
  

 Cut-off radii density fit:                        0.1000000000E-13
 Overlap cut-off criterion AO matrix elements:     0.1000000000E-11
 Cut-offs for Coulomb potential and fitted density:0.1000000000E-13
 Cut-off criterion for Coulomb multipole terms:    0.1000000000E-13
 Progressive Convergence parameter:                 0.000000000    
1
 ***************************************************************************************************



                                            ***************************
                                            *  C O M P U T A T I O N  *
                                            ***************************
  

 Number of elements of the density matrix on this node (used, total):       276       276



 ====================================================
 Numerical Integration : Voronoi Polyhedra (Te Velde)
 ====================================================
  
 General Accuracy Parameter :                         10.00

 Symmetry used in the points section:  ATOM  


 Summary of the Symmetry Unique Points:
 --------------------------------------
    Nr. of used Symmetry Operators                     1

    Points in the Atomic Spheres                      44
    Points in the Atomic Polyhedra                     0
    Points in the Outer Region                         0
    ----------------------------------------------------
    Total                                             44

    Sum of Weights                                 33854.777883

 Total nr. of points:         44
 Nr. of blocks:                1
 Block length:                44
 Nr. of dummy points:          0


 Test of Precision of the Numerical Integration Grid
 ===================================================

 Integral of the Total Core Density:                   0.00000000000000



 =====
 S C F
 =====
  

 CYCLE    1
 orbitals (Q,E):
 ---------------
 S :1...5            ( 1.00    -0.5000)  ( 0.00    -0.1102)  ( 0.00     0.2912)  ( 0.00     2.1458)
                     ( 0.00    15.1140)
 P :1...2            ( 0.00    -0.0467)  ( 0.00     1.6698)
 D :1...2            ( 0.00     0.4090)  ( 0.00     3.3827)

 CYCLE    2
 d-Pmat  mean:  0.40E-01
 imax=      4: -0.73E+00
 orbitals (Q,E):
 ---------------
 S :1...2            ( 1.00    -0.2213)  ( 0.00     0.0617)
 P :1...1            ( 0.00     0.1820)
 D :1...1            ( 0.00     0.6395)

 CYCLE    3
 d-Pmat  mean:  0.48E-02
 imax=      4:  0.66E-01
 orbitals (Q,E):
 ---------------
 S :1...2            ( 1.00    -0.2392)  ( 0.00     0.0523)
 P :1...1            ( 0.00     0.1713)
 D :1...1            ( 0.00     0.6290)

 CYCLE    4
 d-Pmat  mean:  0.47E-03
 imax=      4: -0.74E-02
 orbitals (Q,E):
 ---------------
 S :1...2            ( 1.00    -0.2386)  ( 0.00     0.0522)
 P :1...1            ( 0.00     0.1716)
 D :1...1            ( 0.00     0.6293)

 CYCLE    5
 d-Pmat  mean:  0.13E-04
 imax=      4:  0.20E-03
 orbitals (Q,E):
 ---------------
 S :1...2            ( 1.00    -0.2386)  ( 0.00     0.0522)
 P :1...1            ( 0.00     0.1716)
 D :1...1            ( 0.00     0.6293)

 CYCLE    6
 d-Pmat  mean:  0.14E-06
 imax=      4:  0.26E-05
 orbitals (Q,E):
 ---------------
 S :1...2            ( 1.00    -0.2386)  ( 0.00     0.0522)
 P :1...1            ( 0.00     0.1716)
 D :1...1            ( 0.00     0.6293)

 CYCLE    7
 d-Pmat  mean:  0.24E-08
 imax=      4:  0.39E-07
 orbitals (Q,E):
 ---------------
 S :1...2            ( 1.00    -0.2386)  ( 0.00     0.0522)
 P :1...1            ( 0.00     0.1716)
 D :1...1            ( 0.00     0.6293)

 SCF CONVERGED

 CYCLE    8
1
 ***************************************************************************************************



                                                *******************
                                                *  R E S U L T S  *
                                                *******************
  
 *** Setting up for NEW gradients in focky
 *** Using FIT density in focky

 Scaled ZORA Orbital Energies, per Irrep and Spin:
 =================================================
                        Occup              E (au)              E (eV)       Diff (eV) with prev. cycle
                        -----      --------------------        ------       --------------------------
 S
               1        1.000     -0.23860414448779E+00        -6.493              -2.14E-10
               2        0.000      0.52240780773202E-01         1.422
               3        0.000      0.50128711414796E+00        13.641
               4        0.000      0.23892611828176E+01        65.015
               5        0.000      0.15295018626305E+02       416.199
 P
               1        0.000      0.17156247999750E+00         4.668
               2        0.000      0.19364620405874E+01        52.694
 D
               1        0.000      0.62928666110105E+00        17.124
               2        0.000      0.36544214463356E+01        99.442


 Partially Occupied:
               1 S                -0.23860414448779E+00
  
 LUMO :        2 S                 0.52240780773202E-01
  


 Orbital Energies, all Irreps
 ========================================

 Irrep        no.  (spin)   Occup              E (au)                E (eV)
 ---------------------------------------------------------------------------
 S             1             1.00       -0.23860414448779E+00        -6.4927
 S             2             0.00        0.52240780773202E-01         1.4215
 P             1             0.00        0.17156247999750E+00         4.6685
 S             3             0.00        0.50128711414796E+00        13.6407
 D             1             0.00        0.62928666110105E+00        17.1238
 P             2             0.00        0.19364620405874E+01        52.6938
 S             4             0.00        0.23892611828176E+01        65.0151
 D             2             0.00        0.36544214463356E+01        99.4419
 S             5             0.00        0.15295018626305E+02       416.1986


 All Electron Calculation, thus no Orbital Energies of the Core Orbitals are calculated



 =======================================
 M U L L I K E N   P O P U L A T I O N S
 =======================================
  
 The survey below gives for each atom:
 a) the total charge (Z minus electrons)
 b) the net spin polarization (nr of electrons spin-A minus spin-B)
 c) for each spin the atomic electron valence density (integrated) per L-value.

 Atom              Charge    Spin density          S         P         D         F
 ----              ------    ------------       ------    ------    ------    ------
 1 H               0.0000                       1.0000    0.0000    0.0000    0.0000

 Populations of individual BAS functions
 ----------------------------------------
 1 H           -0.0037  0.0405  0.0399  0.5670  0.3563  0.0000  0.0000  0.0000  0.0000  0.0000
                0.0000  0.0000  0.0000  0.0000  0.0000  0.0000  0.0000  0.0000  0.0000  0.0000
                0.0000  0.0000  0.0000

 Gross Charges per Atom (Z minus electrons)
 ==========================================
             0.0000
 Net Total:  0.00000000


 Atom-Atom Population Matrix (off-diagonal elements not doubled)
 ===============================================================

     1 :     1.0000



 =============
 Dipole Moment  ***  (Debye)  ***
 =============
  
 Vector   :         0.00000000      0.00000000      0.00000000
 Magnitude:         0.00000000

 This molecular dipole moment is calculated with analytic integration



 =========================================
 Quadrupole Moment (Buckingham convention)  ***  (a.u.)  ***
 =========================================
  
      quad-xx        quad-xy        quad-xz        quad-yy        quad-yz        quad-zz
      0.00000000     0.00000000     0.00000000     0.00000000     0.00000000     0.00000000

 This molecular quadrupole moment is calculated with analytic integration



 ===============================================================================
 Electrostatic potential at the Nuclei due to valence electrons and other nuclei
 ===============================================================================
  
         Atom                  Potential
         ----                  ---------
     1)   H                   0.94463948
 
 
 ========================
 No memory problems found
 ========================
 
 Maximum number of active allocate calls:         378
 
 *******************************************************************************

                             A D F   E X I T
 NORMAL TERMINATION



 =================
 Timing Statistics
 =================
  
 Total Used :                     CPU=        0.18      System=        0.06     Elapsed=        1.20

 Calls  Section                     ( Mean, Percentage )
 ---------------------------------------------------------------------------------------------------
     3  ><      ................      0.00    0.32             0.00    1.59             0.01    3.25
     1  INIT    ................      0.01    6.48             0.00    4.34             0.26   21.63
     1  GEOMET  ................      0.00    1.17             0.03   43.29             0.07    6.18
     1  INPUTA  ................      0.00    0.00             0.00    4.03             0.00    0.29
     1  MAINSY  ................      0.01    3.28             0.00    4.71             0.07    6.25
     1  SYMFIT  ................      0.00    0.08             0.00    0.36             0.00    0.03
     1  CORORT  ................      0.00    0.12             0.00    0.56             0.11    8.92
     1  SYMORB  ................      0.00    0.21             0.00    0.94             0.00    0.08
     1  FITINT  ................      0.01    2.96             0.00    0.39             0.06    4.65
     1  CLSMAT  ................      0.00    0.33             0.00    0.00             0.03    2.50
     1  ORTHON  ................      0.00    0.95             0.00    0.51             0.01    0.55
     1  GENPT   ................      0.01    3.61             0.00    2.89             0.03    2.28
     1  PTBAS   ................      0.00    1.46             0.00    0.22             0.02    1.40
     8  FOCKY   ................      0.01   47.69             0.00   15.12             0.03   16.79
     8  FOCKTR  ................      0.00    1.30             0.00    0.65             0.00    0.23
     8  FOCKNM  ................      0.00    0.15             0.00    0.08             0.00    0.03
     8  SDIIS   ................      0.00    2.15             0.00    1.69             0.01    6.64
     8  EMERGE  ................      0.00   10.97             0.00    9.10             0.01    4.40
     1  COREPS  ................      0.00    2.05             0.00    0.23             0.01    0.61
     1  POPAN   ................      0.00    1.53             0.00    0.15             0.01    0.74
     1  DEBYE   ................      0.00    0.41             0.00    0.46             0.07    6.12
     1  QMPOT   ................      0.00    0.05             0.00    4.97             0.00    0.25
     1  EXIT PROCEDURE .........      0.02   12.74             0.00    3.71             0.07    6.18


 Currently Open Files (EXIT00)
 ====================

 Unit    Access Format  Status   Type       Ident (file)
 -------------------------------------------------------
   3      SEQ    FORM   TRANSP  NORMAL      LOGFILE
                                          ( logfile )


 Buffered I/O statistics
 =======================
 Memory available:                     67108864
 Number of records fitting in memory:     16131
 Input :   1.3% of                         3604  *4k bytes
 Output:  10.6% of                         1855  *4k bytes
 Records from serial files evicted:           0
                    others evicted:           0
 Hash table lookups:      14887 with          0 conflicts (  0.00%)

 ***************************************************************************************************
 (LOGFILE)
 <Jan01-2013> <00:00:00>  DIRAC 2013.01  RunTime: Jan01-2013 00:00:00  Nodes: 1  Procs: 1
 <Jan01-2013> <00:00:00>  NORMAL TERMINATION
 <Jan01-2013> <00:00:00>  END
 <Jan01-2013> <00:00:01>  ADF 2013.01  RunTime: Jan01-2013 00:00:01  Nodes: 1  Procs: 1
 <Jan01-2013> <00:00:01>  Hydrogen (QZ, all electron, 5S 2P 2D)
 <Jan01-2013> <00:00:01>  RunType   : CREATE
 <Jan01-2013> <00:00:01>  Net Charge: 0 (Nuclei minus Electrons)
 <Jan01-2013> <00:00:01>  Symmetry  : ATOM
  Coordinates
    Atom         X           Y           Z   (Angstrom)
    1.H         0.000000    0.000000    0.000000
 <Jan01-2013> <00:00:01>  >>>> CORORT
 <Jan01-2013> <00:00:01>  >>>> FITINT
 <Jan01-2013> <00:00:01>  >>>> CLSMAT
 <Jan01-2013> <00:00:01>  >>>> ORTHON
 <Jan01-2013> <00:00:01>  >>>> GENPT
 <Jan01-2013> <00:00:01>  Acc.Num.Int.=  10.000
 <Jan01-2013> <00:00:01>  Block Length=  44
 <Jan01-2013> <00:00:01>  >>>> PTBAS
 <Jan01-2013> <00:00:01>  >>>> CYCLE
 <Jan01-2013> <00:00:01>    1
 <Jan01-2013> <00:00:01>    2  ErrMat   0.03803841  MaxEl  0.03078708
 <Jan01-2013> <00:00:01>    3  ErrMat   0.00916622  MaxEl -0.00901560
 <Jan01-2013> <00:00:01>    4  ErrMat   0.00035667  MaxEl  0.00031421
 <Jan01-2013> <00:00:01>    5  ErrMat   0.00000962  MaxEl -0.00000892
 <Jan01-2013> <00:00:01>    6  ErrMat   0.00000013  MaxEl  0.00000008
 <Jan01-2013> <00:00:01>    7  ErrMat   0.00000000  MaxEl  0.00000000
 <Jan01-2013> <00:00:01>  SCF converged
 <Jan01-2013> <00:00:01>    8  ErrMat   0.00000000  MaxEl  0.00000000
 <Jan01-2013> <00:00:01>   Solutions with partially occupied orbitals may not be
 <Jan01-2013> <00:00:01>   lowest in energy. You might consider lowering the
 <Jan01-2013> <00:00:01>   symmetry in the input and explicitly specifying integer
 <Jan01-2013> <00:00:01>   occupations. In that case always check that you obtain
 <Jan01-2013> <00:00:01>   an aufbau solution.
 <Jan01-2013> <00:00:01>  >>>> POPAN
 <Jan01-2013> <00:00:01>  >>>> DEBYE
 <Jan01-2013> <00:00:02>  NORMAL TERMINATION
 <Jan01-2013> <00:00:02>  END

 *******************************************************************************
 *                                                                             *
 *  -------------------------------------                                      *
 *   Amsterdam Density Functional  (ADF)         2013.01   April 2, 2013       *
 *  -------------------------------------                                      *
 *                                               Build 201304112106            *
 *                                                                             *
 *                                                                             *
 *                            =====================                            *
 *                            |                   |                            *
 *                            |     D I R A C     |                            *
 *                            |                   |                            *
 *                            =====================                            *
 *                                                                             *
 *                                                                             *
 *   Online information and documentation:  http://www.scm.com                 *
 *   E-mail:  support@scm.com   info@scm.com                                   *
 *                                                                             *
 *   Scientific publications using ADF results must be properly referenced     *
 *   See the User Manuals (or the web site) for recommended citations          *
 *   The terms and conditions of the End User License Agreement apply to       *
 *   the use of ADF, http://www.scm.com/Sales/LicAgreement.html                *
 *                                                                             *
 ****************************  x86_64_linux_intel  *****************************
 
 Licensed to: Prof. Cacier Hadad / University of Antioquia / Medellin / COLOMBIA
 SCM User ID: u15319
  
 DIRAC 2013.01  RunTime: Jan01-2013 00:00:02  Nodes: 1  Procs: 1

 Temporary files are created in /tmp/kid_0.RmQIv8

1
 OXYGEN ATOM all electron RELATIVISTIC, Point Nuc, A and c fr
 N J RN H ZN XION ANUC CLIGHT
 5000    4100.00000000197.36710137  8.00000000  0.00000000   15.994914  0.1370360E+03
  PH   PHI     EPS        DEL        DELRVR
  0.30  0.30     2500.00  0.00001000  0.00001000
 IDIRC  NC1  NDEBU NPRIN  IPUN IRCOR IWCOR
   1   300     0     0     0     0     0
   XALPHA      XLATTER      RNUC
  0.70000000  0.00000000  0.00000000 Point Charge
   XN   XL   XJ      XE          XZ      XDELL
  1.0  0.0  0.5      -5.000       2.000     0.00000
  2.0  0.0  0.5      -1.000       2.000     0.00000
  2.0  1.0  0.5      -1.000       2.000     0.00000
  2.0  1.0  1.5      -1.000       2.000     0.00000
 ICORP=  0  NPCL=  0  DEMP=0.00  PEPS=0.000000
 R(1)=  0.1000000E-08 D=  0.1005080E+01 RNUC=  0.0000000E+00
 converged at cycle   28  DENSITY AVERAGING    0.2400
  MAXIMUM ERROR IN R.V(R) IS   0.81125670E-05
 Q,EY,EV,EZ,ESUM,ETOT,RHO  0.800000E+01 -0.101247E+02 -0.114961E+03 -0.177573E+03 -0.405053E+02 -0.743427E+02  0.414766E-14


 DIRAC CALCULATION
1                    OXYGEN ATOM all electron RELATIVISTIC, Point Nuc, A and c from libtc


 EXCHANGE COEFFICIENT=  0.7000000           TAIL CORRECTION=  0.           NUCLEAR RADIUS=  0.000E+00
0                       ORBITAL    N    L    J     ELECTRONS     EIGENVALUE                DELTA OF EIGENV.

                          1S1/2  1.0  0.0  0.5     2.000       -0.1880014E+02                 0.7264359E-06
                          2S1/2  2.0  0.0  0.5     2.000       -0.8412236E+00                 0.5932752E-05
                          2P1/2  2.0  1.0  0.5     2.000       -0.3063203E+00                 0.5998471E-05
                          2P3/2  2.0  1.0  1.5     2.000       -0.3049609E+00                 0.5986971E-05


                                        NUCLEAR CHARGE=    8.000000
                            INTEGRAL OF CHARGE DENSITY=    8.000000
                           SUM OF THE ORBITAL ENERGIES=    -40.5053
                                          TOTAL ENERGY=    -74.3427
                                        KINETIC ENERGY=     74.4552
                             NUCLEAR ATTRACTION ENERGY=   -177.5730
                             ELECTRON REPULSION ENERGY=     36.3686
                                       EXCHANGE ENERGY=     -7.5935

 *******************************************************************************

                             D I R A C   E X I T
 NORMAL TERMINATION



 =================
 Timing Statistics
 =================
  
 Total Used :                     CPU=        0.14      System=        0.02     Elapsed=        0.25

 Calls  Section                     ( Mean, Percentage )
 ---------------------------------------------------------------------------------------------------
     2  ><      ................      0.00    0.01             0.00    0.00             0.00    0.00
     1  EXIT PROCEDURE .........      0.14   99.99             0.02  100.00             0.25  100.00


 Currently Open Files (EXIT00)
 ====================

 Unit    Access Format  Status   Type       Ident (file)
 -------------------------------------------------------
   3      SEQ    FORM   TRANSP  NORMAL      LOGFILE
                                          ( logfile )


 Buffered I/O statistics
 =======================
 Memory available:                     67108864
 Number of records fitting in memory:     16131
 Input : 100.0% of                            0  *4k bytes
 Output: 100.0% of                            0  *4k bytes
 Records from serial files evicted:           0
                    others evicted:           0
 Hash table lookups:          0 with          0 conflicts (100.00%)
(INPUT FILE)
Create O   file=/home/andyzapa/adf2013.01/atomicdata/ZORA/QZ4P/O
XC
GGA PBE
End
relativistic ZORA
Corepotentials t12.rel
End Input

 *******************************************************************************
 *                                                                             *
 *  -------------------------------------                                      *
 *   Amsterdam Density Functional  (ADF)         2013.01   April 2, 2013       *
 *  -------------------------------------                                      *
 *                                               Build 201304112215            *
 *                                                                             *
 *                                                                             *
 *                              =================                              *
 *                              |               |                              *
 *                              |     A D F     |                              *
 *                              |               |                              *
 *                              =================                              *
 *                                                                             *
 *                                                                             *
 *   Online information and documentation:  http://www.scm.com                 *
 *   E-mail:  support@scm.com   info@scm.com                                   *
 *                                                                             *
 *   Scientific publications using ADF results must be properly referenced     *
 *   See the User Manuals (or the web site) for recommended citations          *
 *   The terms and conditions of the End User License Agreement apply to       *
 *   the use of ADF, http://www.scm.com/Sales/LicAgreement.html                *
 *                                                                             *
 ********************  x86_64_linux_intel / platform_mpi  **********************
 
 Licensed to: Prof. Cacier Hadad / University of Antioquia / Medellin / COLOMBIA
 SCM User ID: u15319
  
 ADF 2013.01  RunTime: Jan01-2013 00:00:02  Nodes: 1  Procs: 1

 Temporary files are created in /tmp/kid_0.G7SBsy

 Oxygen (QZ, all electron, 8S 4P 2D 2F)



 ===========================
 A T T A C H E D   F I L E S
 ===========================
  
 CREATE - Data File:    /home/andyzapa/adf2013.01/atomicdata/ZORA/QZ4P/O
                        Oxygen (QZ, all electron, 8S 4P 2D 2F)
 Core Potentials:
         file : t12.rel



 ===============================
 M O D E L   P A R A M E T E R S
 ===============================
  
 DENSITY FUNCTIONAL POTENTIAL (scf)
    LDA:                               PW92                                    == Not Default ==
    Gradient Corrections:              PBEc PBEx                               == Not Default ==

 SPIN  (restricted / unrestr.)
    Molecule:                          Restricted                               

 OTHER ASPECTS
    Relativistic Corrections:          scalar (ZORA,SAPA)                      == Not Default ==

    Nuclear Charge Density Model:      Point Charge Nuclei                                                                                                                                                                                     
    Core Treatment:                    Frozen Orbital(s)                        

    Hyperfine or Zeeman Interaction:   ---                                      



 =====================================
 S Y M M E T R Y ,   E L E C T R O N S
 =====================================
  
 Symmetry: ATOM

 Irreducible Representations, including subspecies
 -------------------------------------------------
 S
 P:x  P:y  P:z
 D:z2  D:x2-y2  D:xy  D:xz  D:yz
 F:z3  F:z  F:xyz  F:z2x  F:z2y  F:x  F:y


 Configuration of Valence Electrons
 ==================================

          Occupation Numbers
          -------------------------------------------------
 S        2*2
 P        4
 D        0
 F        0
          -------------------------------------------------

 Total:   8

 Net Charge: 0 (Nuclei minus Electrons)

 Preset values for MO occupations will be applied through SCF cycle no. 1000000
 Thereafter, the program will assign electrons to MOs that are spatially
 similar to the occupied MOs in a "reference" cycle ("KeepOrbitals").
 The reference cycle is always the PREVIOUS cycle: it will evolve with
 the SCF procedure.



 ================================
 (Slater-type)  F U N C T I O N S  ***  (Basis and Fit)  ***
 ================================
  

 Atom Type    1  (O)
 ==============

 Valence Basis Sets:  16
 -----------------------
   1 S   14.800000
   1 S    8.750000
   1 S    6.650000
   2 S    7.100000
   2 S    3.200000
   2 S    2.050000
   2 S    1.500000
   2 S    0.750000
   2 P    5.700000
   2 P    3.050000
   2 P    1.650000
   2 P    1.000000
   3 D    2.500000
   3 D    1.500000
   4 F    4.000000
   4 F    2.000000

 Charge Fitting Sets (for the computation of the Coulomb Potential):  37
 -----------------------------------------------------------------------
   1 S   29.600000
   1 S   22.760000
   1 S   17.500000
   1 S   11.580000
   2 S   14.160000
   2 S   10.290000
   2 S    7.480000
   2 S    5.430000
   3 S    5.780000
   3 S    4.410000
   3 S    3.370000
   3 S    2.570000
   3 S    1.960000
   3 S    1.500000
   2 P   14.450000
   2 P    9.770000
   2 P    6.610000
   3 P    6.560000
   3 P    4.710000
   3 P    3.390000
   3 P    2.430000
   3 P    1.750000
   3 D   11.400000
   3 D    7.640000
   3 D    5.120000
   4 D    4.550000
   4 D    3.200000
   4 D    2.250000
   4 F   12.750000
   4 F    8.120000
   4 F    5.170000
   5 F    4.130000
   5 F    2.750000
   5 G    9.700000
   5 G    6.560000
   5 G    4.440000
   5 G    3.000000


 BAS: List of all Elementary Cartesian Basis Functions
 =====================================================

 The numbering in the list below (to the right of the function characteristics) is referred
 to in print-outs of MO eigenvectors and Mulliken populations in the BAS representation
 (as contrasted to the SFO representation).

 Notes:
 1. The functions are characterized by a polynomial prefactor (powers of x,y,z and r) and
    an exponential decay factor alpha.
 2. Since the basis sets are specific for an atom TYPE, the individual functions occur on
    all atoms of that type.
 3. The word 'Core' in the left margin signals that it is a Core Function (CF) : not a
    degree of freedom in the valence set, but only used to ensure orthogonalization of
    the other valence basis functions on the frozen Core Orbitals.


 (power of) X  Y  Z  R     Alpha  on Atom
            ==========     =====     ==========

 O                                    1
                                  ---------------------------------------------------------------------------
            0  0  0  0    14.800      1
            0  0  0  0     8.750      2
            0  0  0  0     6.650      3
            0  0  0  1     7.100      4
            0  0  0  1     3.200      5
            0  0  0  1     2.050      6
            0  0  0  1     1.500      7
            0  0  0  1     0.750      8
            1  0  0  0     5.700      9
            0  1  0  0     5.700     10
            0  0  1  0     5.700     11
            1  0  0  0     3.050     12
            0  1  0  0     3.050     13
            0  0  1  0     3.050     14
            1  0  0  0     1.650     15
            0  1  0  0     1.650     16
            0  0  1  0     1.650     17
            1  0  0  0     1.000     18
            0  1  0  0     1.000     19
            0  0  1  0     1.000     20
            2  0  0  0     2.500     21
            1  1  0  0     2.500     22
            1  0  1  0     2.500     23
            0  2  0  0     2.500     24
            0  1  1  0     2.500     25
            0  0  2  0     2.500     26
            2  0  0  0     1.500     27
            1  1  0  0     1.500     28
            1  0  1  0     1.500     29
            0  2  0  0     1.500     30
            0  1  1  0     1.500     31
            0  0  2  0     1.500     32
            3  0  0  0     4.000     33
            2  1  0  0     4.000     34
            2  0  1  0     4.000     35
            1  2  0  0     4.000     36
            1  1  1  0     4.000     37
            1  0  2  0     4.000     38
            0  3  0  0     4.000     39
            0  2  1  0     4.000     40
            0  1  2  0     4.000     41
            0  0  3  0     4.000     42
            3  0  0  0     2.000     43
            2  1  0  0     2.000     44
            2  0  1  0     2.000     45
            1  2  0  0     2.000     46
            1  1  1  0     2.000     47
            1  0  2  0     2.000     48
            0  3  0  0     2.000     49
            0  2  1  0     2.000     50
            0  1  2  0     2.000     51
            0  0  3  0     2.000     52

 Total number of charge fitting functions (nprimf)       184
 Total number of Cartesian basis functions (naos)         52
 Total number of Cartesian core functions  (ncos)          0



 BAS: List of all Elementary Cartesian Basis Functions
 =====================================================

 The numbering in the list below (to the right of the function characteristics) is referred
 to in print-outs of MO eigenvectors and Mulliken populations in the BAS representation
 (as contrasted to the SFO representation).

 Notes:
 1. The functions are characterized by a polynomial prefactor (powers of x,y,z and r) and
    an exponential decay factor alpha.
 2. Since the basis sets are specific for an atom TYPE, the individual functions occur on
    all atoms of that type.
 3. The word 'Core' in the left margin signals that it is a Core Function (CF) : not a
    degree of freedom in the valence set, but only used to ensure orthogonalization of
    the other valence basis functions on the frozen Core Orbitals.


 (power of) X  Y  Z  R     Alpha  on Atom
            ==========     =====     ==========

 O                                    1
                                  ---------------------------------------------------------------------------
            0  0  0  0    14.800      1
            0  0  0  0     8.750      2
            0  0  0  0     6.650      3
            0  0  0  1     7.100      4
            0  0  0  1     3.200      5
            0  0  0  1     2.050      6
            0  0  0  1     1.500      7
            0  0  0  1     0.750      8
            1  0  0  0     5.700      9
            0  1  0  0     5.700     10
            0  0  1  0     5.700     11
            1  0  0  0     3.050     12
            0  1  0  0     3.050     13
            0  0  1  0     3.050     14
            1  0  0  0     1.650     15
            0  1  0  0     1.650     16
            0  0  1  0     1.650     17
            1  0  0  0     1.000     18
            0  1  0  0     1.000     19
            0  0  1  0     1.000     20
            2  0  0  0     2.500     21
            1  1  0  0     2.500     22
            1  0  1  0     2.500     23
            0  2  0  0     2.500     24
            0  1  1  0     2.500     25
            0  0  2  0     2.500     26
            2  0  0  0     1.500     27
            1  1  0  0     1.500     28
            1  0  1  0     1.500     29
            0  2  0  0     1.500     30
            0  1  1  0     1.500     31
            0  0  2  0     1.500     32
            3  0  0  0     4.000     33
            2  1  0  0     4.000     34
            2  0  1  0     4.000     35
            1  2  0  0     4.000     36
            1  1  1  0     4.000     37
            1  0  2  0     4.000     38
            0  3  0  0     4.000     39
            0  2  1  0     4.000     40
            0  1  2  0     4.000     41
            0  0  3  0     4.000     42
            3  0  0  0     2.000     43
            2  1  0  0     2.000     44
            2  0  1  0     2.000     45
            1  2  0  0     2.000     46
            1  1  1  0     2.000     47
            1  0  2  0     2.000     48
            0  3  0  0     2.000     49
            0  2  1  0     2.000     50
            0  1  2  0     2.000     51
            0  0  3  0     2.000     52
1
 ***************************************************************************************************



                                              ***********************
                                              *  T E C H N I C A L  *
                                              ***********************
  



 =============================================================
 P A R A L L E L I Z A T I O N  and  V E C T O R I Z A T I O N
 =============================================================
  
 Nr of parallel processes:                                1
 Maximum vector length in NumInt loops:                 128



 ===============
 I O  vs.  C P U  ***  (store numerical data on disk or recalculate)  ***
 ===============
  
 Basis functions:   recalculate when needed
 Fit functions:     recalculate when needed

 IO buffersize (Mb):                                     64.000000



 =====================
 S C F   U P D A T E S
 =====================
  
 Max. nr. of cycles:                               100
 Convergence criterion:                              0.0000000100
   secondary criterion:                              0.0000000100

 Mix parameter (when DIIS does not apply):           0.2000000000
 Special mix parameter for the first cycle:          1.0000000000


 DIIS (Direct Inversion in Iteration Space)
    Replace damping when SCF Error is below:         0.5000000000
    Apply anyway after SCF cycle:
                                                     5
    (Max.) nr. of expansion vectors:                10

    Upperbound on expansion coefficients:            5.0000000000
    (when exceeded, IterationSpace is re-built)
    2nd Upperbound on coefficients:                 25.0000000000
    (when exceeded, simple damping will be used)
 Automatic ElectronSmearing (in case of problematic SCF convergence) disabled



 =================
 P R E C I S I O N  ***  (General: NumInt, NeglectFunctionTails, ...)  ***
 =================
  

 NumInt:           Target precision:                10.0000000000
 -------           Initial precision:               10.0000000000
                   Min. precision (optimization):   10.0000000000

 Neglect Functions:          Basis functions:        0.1000000000E-11
 ------------------          Fit functions:          0.1000000000E-11



 ===========================
 L I N E A R   S C A L I N G
 ===========================
  

 Cut-off radii density fit:                        0.1000000000E-13
 Overlap cut-off criterion AO matrix elements:     0.1000000000E-11
 Cut-offs for Coulomb potential and fitted density:0.1000000000E-13
 Cut-off criterion for Coulomb multipole terms:    0.1000000000E-13
 Progressive Convergence parameter:                 0.000000000    
1
 ***************************************************************************************************



                                            ***************************
                                            *  C O M P U T A T I O N  *
                                            ***************************
  

 Number of elements of the density matrix on this node (used, total):      1378      1378



 ====================================================
 Numerical Integration : Voronoi Polyhedra (Te Velde)
 ====================================================
  
 General Accuracy Parameter :                         10.00

 Symmetry used in the points section:  ATOM  


 Summary of the Symmetry Unique Points:
 --------------------------------------
    Nr. of used Symmetry Operators                     1

    Points in the Atomic Spheres                      61
    Points in the Atomic Polyhedra                     0
    Points in the Outer Region                         0
    ----------------------------------------------------
    Total                                             61

    Sum of Weights                                 58501.056183

 Total nr. of points:         61
 Nr. of blocks:                1
 Block length:                61
 Nr. of dummy points:          0


 Test of Precision of the Numerical Integration Grid
 ===================================================

 Integral of the Total Core Density:                   0.00000000000000



 =====
 S C F
 =====
  

 CYCLE    1
 orbitals (Q,E):
 ---------------
 S :1...8            ( 2.00   -32.0159)  ( 2.00    -8.0044)  ( 0.00    -3.5574)  ( 0.00    -1.9901)
                     ( 0.00    -1.2515)  ( 0.00     4.1058)  ( 0.00    41.2206)  ( 0.00   308.5800)
 P :1...4            ( 4.00    -7.9758)  ( 0.00    -3.5116)  ( 0.00    -1.8856)  ( 0.00     3.1956)
 D :1...2            ( 0.00    -3.5495)  ( 0.00    -1.9917)
 F :1...2            ( 0.00    -1.9999)  ( 0.00     1.0590)

 CYCLE    2
 d-Pmat  mean:  0.11E+01
 imax=      3: -0.25E+02
 orbitals (Q,E):
 ---------------
 S :1...3            ( 2.00   -14.5566)  ( 2.00    -0.0356)  ( 0.00     0.1667)
 P :1...2            ( 4.00     0.2048)  ( 0.00     0.7903)
 D :1...1            ( 0.00     0.7381)
 F :1...1            ( 0.00     1.6042)

 CYCLE    3
 d-Pmat  mean:  0.30E+00
 imax=     20: -0.24E+01
 orbitals (Q,E):
 ---------------
 S :1...3            ( 2.00   -16.2388)  ( 2.00    -0.4301)  ( 0.00     0.0620)
 P :1...2            ( 4.00     0.0108)  ( 0.00     0.4058)
 D :1...1            ( 0.00     0.5775)
 F :1...1            ( 0.00     1.4155)

 CYCLE    4
 d-Pmat  mean:  0.10E+00
 imax=     20: -0.11E+01
 orbitals (Q,E):
 ---------------
 S :1...3            ( 2.00   -17.2725)  ( 2.00    -0.6986)  ( 0.00     0.0275)
 P :1...2            ( 4.00    -0.1717)  ( 0.00     0.2612)
 D :1...1            ( 0.00     0.5085)
 F :1...1            ( 0.00     1.3362)

 CYCLE    5
 d-Pmat  mean:  0.56E-01
 imax=      3:  0.70E+00
 orbitals (Q,E):
 ---------------
 S :1...3            ( 2.00   -18.8741)  ( 2.00    -0.8425)  ( 0.00     0.0251)
 P :1...2            ( 4.00    -0.2957)  ( 0.00     0.2201)
 D :1...1            ( 0.00     0.5505)
 F :1...1            ( 0.00     1.3859)

 CYCLE    6
 d-Pmat  mean:  0.57E-02
 imax=      2:  0.75E-01
 orbitals (Q,E):
 ---------------
 S :1...3            ( 2.00   -18.9263)  ( 2.00    -0.8875)  ( 0.00     0.0144)
 P :1...2            ( 4.00    -0.3386)  ( 0.00     0.1983)
 D :1...1            ( 0.00     0.5241)
 F :1...1            ( 0.00     1.3583)

 CYCLE    7
 d-Pmat  mean:  0.80E-03
 imax=      6: -0.45E-02
 orbitals (Q,E):
 ---------------
 S :1...3            ( 2.00   -18.9106)  ( 2.00    -0.8796)  ( 0.00     0.0160)
 P :1...2            ( 4.00    -0.3310)  ( 0.00     0.2007)
 D :1...1            ( 0.00     0.5265)
 F :1...1            ( 0.00     1.3609)

 CYCLE    8
 d-Pmat  mean:  0.91E-04
 imax=      6:  0.77E-03
 orbitals (Q,E):
 ---------------
 S :1...3            ( 2.00   -18.9122)  ( 2.00    -0.8804)  ( 0.00     0.0159)
 P :1...2            ( 4.00    -0.3317)  ( 0.00     0.2005)
 D :1...1            ( 0.00     0.5262)
 F :1...1            ( 0.00     1.3606)

 CYCLE    9
 d-Pmat  mean:  0.72E-06
 imax=      2: -0.12E-04
 orbitals (Q,E):
 ---------------
 S :1...3            ( 2.00   -18.9122)  ( 2.00    -0.8804)  ( 0.00     0.0159)
 P :1...2            ( 4.00    -0.3317)  ( 0.00     0.2005)
 D :1...1            ( 0.00     0.5262)
 F :1...1            ( 0.00     1.3606)

 CYCLE   10
 d-Pmat  mean:  0.12E-07
 imax=      6: -0.16E-06
 orbitals (Q,E):
 ---------------
 S :1...3            ( 2.00   -18.9122)  ( 2.00    -0.8804)  ( 0.00     0.0159)
 P :1...2            ( 4.00    -0.3317)  ( 0.00     0.2005)
 D :1...1            ( 0.00     0.5262)
 F :1...1            ( 0.00     1.3606)

 CYCLE   11
 d-Pmat  mean:  0.11E-09
 imax=      6: -0.12E-08
 orbitals (Q,E):
 ---------------
 S :1...3            ( 2.00   -18.9122)  ( 2.00    -0.8804)  ( 0.00     0.0159)
 P :1...2            ( 4.00    -0.3317)  ( 0.00     0.2005)
 D :1...1            ( 0.00     0.5262)
 F :1...1            ( 0.00     1.3606)

 SCF CONVERGED

 CYCLE   12
1
 ***************************************************************************************************



                                                *******************
                                                *  R E S U L T S  *
                                                *******************
  
 *** Setting up for NEW gradients in focky
 *** Using FIT density in focky

 Scaled ZORA Orbital Energies, per Irrep and Spin:
 =================================================
                        Occup              E (au)              E (eV)       Diff (eV) with prev. cycle
                        -----      --------------------        ------       --------------------------
 S
               1        2.000     -0.18912163588984E+02      -514.626              -7.16E-09
               2        2.000     -0.88042536044543E+00       -23.958              -7.12E-09
               3        0.000      0.15917239287972E-01         0.433
               4        0.000      0.47157189633591E+00        12.832
               5        0.000      0.25092163529346E+01        68.279
               6        0.000      0.11901959076240E+02       323.869
               7        0.000      0.52347890774294E+02      1424.459
               8        0.000      0.32159312651573E+03      8750.994
 P
               1        4.000     -0.33172720151306E+00        -9.027              -6.97E-09
               2        0.000      0.20052917629028E+00         5.457
               3        0.000      0.16594440941108E+01        45.156
               4        0.000      0.12142335979422E+02       330.410
 D
               1        0.000      0.52623159764820E+00        14.319
               2        0.000      0.24055384908689E+01        65.458
 F
               1        0.000      0.13606224427136E+01        37.024
               2        0.000      0.70188296925037E+01       190.992


 Partially Occupied:
               1 P                -0.33172720151306E+00
  
 HOMO :        2 S                -0.88042536044543E+00
 LUMO :        3 S                 0.15917239287972E-01
  


 Orbital Energies, all Irreps
 ========================================

 Irrep        no.  (spin)   Occup              E (au)                E (eV)
 ---------------------------------------------------------------------------
 S             1             2.00       -0.18912163588984E+02      -514.6262
 S             2             2.00       -0.88042536044543E+00       -23.9576
 P             1             4.00       -0.33172720151306E+00        -9.0268
 S             3             0.00        0.15917239287972E-01         0.4331
 P             2             0.00        0.20052917629028E+00         5.4567
 S             4             0.00        0.47157189633591E+00        12.8321
 D             1             0.00        0.52623159764820E+00        14.3195
 F             1             0.00        0.13606224427136E+01        37.0244
 P             3             0.00        0.16594440941108E+01        45.1558
 D             2             0.00        0.24055384908689E+01        65.4580
 S             5             0.00        0.25092163529346E+01        68.2793
 F             2             0.00        0.70188296925037E+01       190.9921
 S             6             0.00        0.11901959076240E+02       323.8688
 P             4             0.00        0.12142335979422E+02       330.4098
 S             7             0.00        0.52347890774294E+02      1424.4586
 S             8             0.00        0.32159312651573E+03      8750.9942


 All Electron Calculation, thus no Orbital Energies of the Core Orbitals are calculated



 =======================================
 M U L L I K E N   P O P U L A T I O N S
 =======================================
  
 The survey below gives for each atom:
 a) the total charge (Z minus electrons)
 b) the net spin polarization (nr of electrons spin-A minus spin-B)
 c) for each spin the atomic electron valence density (integrated) per L-value.

 Atom              Charge    Spin density          S         P         D         F
 ----              ------    ------------       ------    ------    ------    ------
 1 O               0.0000                       4.0000    4.0000    0.0000    0.0000

 Populations of individual BAS functions
 ----------------------------------------
 1 O            0.0407  0.7707  1.2791 -0.1485  0.7639  1.0393  0.2537  0.0009  0.0450  0.0450
                0.0450  0.4807  0.4807  0.4807  0.6422  0.6422  0.6422  0.1654  0.1654  0.1654
                0.0000  0.0000  0.0000  0.0000  0.0000  0.0000  0.0000  0.0000  0.0000  0.0000
                0.0000  0.0000  0.0000  0.0000  0.0000  0.0000  0.0000  0.0000  0.0000  0.0000
                0.0000  0.0000  0.0000  0.0000  0.0000  0.0000  0.0000  0.0000  0.0000  0.0000
                0.0000  0.0000

 Gross Charges per Atom (Z minus electrons)
 ==========================================
             0.0000
 Net Total:  0.00000000


 Atom-Atom Population Matrix (off-diagonal elements not doubled)
 ===============================================================

     1 :     8.0000



 =============
 Dipole Moment  ***  (Debye)  ***
 =============
  
 Vector   :         0.00000000      0.00000000      0.00000000
 Magnitude:         0.00000000

 This molecular dipole moment is calculated with analytic integration



 =========================================
 Quadrupole Moment (Buckingham convention)  ***  (a.u.)  ***
 =========================================
  
      quad-xx        quad-xy        quad-xz        quad-yy        quad-yz        quad-zz
      0.00000000     0.00000000     0.00000000     0.00000000     0.00000000     0.00000000

 This molecular quadrupole moment is calculated with analytic integration



 ===============================================================================
 Electrostatic potential at the Nuclei due to valence electrons and other nuclei
 ===============================================================================
  
         Atom                  Potential
         ----                  ---------
     1)   O                  22.26490088
 
 
 ========================
 No memory problems found
 ========================
 
 Maximum number of active allocate calls:         476
 
 *******************************************************************************

                             A D F   E X I T
 NORMAL TERMINATION



 =================
 Timing Statistics
 =================
  
 Total Used :                     CPU=        0.29      System=        0.06     Elapsed=        1.43

 Calls  Section                     ( Mean, Percentage )
 ---------------------------------------------------------------------------------------------------
     3  ><      ................      0.00    0.53             0.00    0.03             0.01    1.43
     1  INIT    ................      0.01    2.75             0.01   11.47             0.36   25.17
     1  GEOMET  ................      0.00    1.58             0.02   41.20             0.18   12.35
     1  INPUTA  ................      0.00    0.90             0.00    0.00             0.00    0.24
     1  MAINSY  ................      0.01    3.54             0.00    0.00             0.05    3.63
     1  SYMFIT  ................      0.00    0.13             0.00    0.00             0.00    0.03
     1  CORORT  ................      0.00    0.19             0.00    0.00             0.05    3.43
     1  SYMORB  ................      0.00    0.45             0.00    0.00             0.00    0.09
     1  FITINT  ................      0.01    2.82             0.00    0.00             0.02    1.64
     1  CLSMAT  ................      0.00    0.21             0.00    0.00             0.01    0.46
     1  ORTHON  ................      0.00    0.88             0.00    0.00             0.03    1.86
     1  GENPT   ................      0.01    3.97             0.00    0.00             0.03    2.30
     1  PTBAS   ................      0.00    1.17             0.00    0.00             0.05    3.51
    12  FOCKY   ................      0.01   47.96             0.00   18.49             0.02   20.10
    12  FOCKTR  ................      0.00    1.59             0.00    0.42             0.00    0.34
    12  FOCKNM  ................      0.00    0.16             0.00    0.06             0.00    0.03
    12  SDIIS   ................      0.00    2.47             0.00    1.14             0.01    9.19
    12  EMERGE  ................      0.00   16.22             0.00   17.57             0.01    7.92
     1  COREPS  ................      0.01    1.78             0.00    0.84             0.01    0.63
     1  POPAN   ................      0.00    0.45             0.00    4.64             0.01    0.69
     1  DEBYE   ................      0.00    0.20             0.00    0.94             0.01    0.51
     1  QMPOT   ................      0.01    1.80             0.00    0.00             0.01    0.36
     1  EXIT PROCEDURE .........      0.02    8.26             0.00    3.19             0.06    4.10


 Currently Open Files (EXIT00)
 ====================

 Unit    Access Format  Status   Type       Ident (file)
 -------------------------------------------------------
   3      SEQ    FORM   TRANSP  NORMAL      LOGFILE
                                          ( logfile )


 Buffered I/O statistics
 =======================
 Memory available:                     67108864
 Number of records fitting in memory:     16131
 Input :   0.9% of                         6430  *4k bytes
 Output:   8.3% of                         2767  *4k bytes
 Records from serial files evicted:           0
                    others evicted:           0
 Hash table lookups:      25047 with          0 conflicts (  0.00%)

 ***************************************************************************************************
 (LOGFILE)
 <Jan01-2013> <00:00:00>  DIRAC 2013.01  RunTime: Jan01-2013 00:00:00  Nodes: 1  Procs: 1
 <Jan01-2013> <00:00:00>  NORMAL TERMINATION
 <Jan01-2013> <00:00:00>  END
 <Jan01-2013> <00:00:01>  ADF 2013.01  RunTime: Jan01-2013 00:00:01  Nodes: 1  Procs: 1
 <Jan01-2013> <00:00:01>  Hydrogen (QZ, all electron, 5S 2P 2D)
 <Jan01-2013> <00:00:01>  RunType   : CREATE
 <Jan01-2013> <00:00:01>  Net Charge: 0 (Nuclei minus Electrons)
 <Jan01-2013> <00:00:01>  Symmetry  : ATOM
  Coordinates
    Atom         X           Y           Z   (Angstrom)
    1.H         0.000000    0.000000    0.000000
 <Jan01-2013> <00:00:01>  >>>> CORORT
 <Jan01-2013> <00:00:01>  >>>> FITINT
 <Jan01-2013> <00:00:01>  >>>> CLSMAT
 <Jan01-2013> <00:00:01>  >>>> ORTHON
 <Jan01-2013> <00:00:01>  >>>> GENPT
 <Jan01-2013> <00:00:01>  Acc.Num.Int.=  10.000
 <Jan01-2013> <00:00:01>  Block Length=  44
 <Jan01-2013> <00:00:01>  >>>> PTBAS
 <Jan01-2013> <00:00:01>  >>>> CYCLE
 <Jan01-2013> <00:00:01>    1
 <Jan01-2013> <00:00:01>    2  ErrMat   0.03803841  MaxEl  0.03078708
 <Jan01-2013> <00:00:01>    3  ErrMat   0.00916622  MaxEl -0.00901560
 <Jan01-2013> <00:00:01>    4  ErrMat   0.00035667  MaxEl  0.00031421
 <Jan01-2013> <00:00:01>    5  ErrMat   0.00000962  MaxEl -0.00000892
 <Jan01-2013> <00:00:01>    6  ErrMat   0.00000013  MaxEl  0.00000008
 <Jan01-2013> <00:00:01>    7  ErrMat   0.00000000  MaxEl  0.00000000
 <Jan01-2013> <00:00:01>  SCF converged
 <Jan01-2013> <00:00:01>    8  ErrMat   0.00000000  MaxEl  0.00000000
 <Jan01-2013> <00:00:01>   Solutions with partially occupied orbitals may not be
 <Jan01-2013> <00:00:01>   lowest in energy. You might consider lowering the
 <Jan01-2013> <00:00:01>   symmetry in the input and explicitly specifying integer
 <Jan01-2013> <00:00:01>   occupations. In that case always check that you obtain
 <Jan01-2013> <00:00:01>   an aufbau solution.
 <Jan01-2013> <00:00:01>  >>>> POPAN
 <Jan01-2013> <00:00:01>  >>>> DEBYE
 <Jan01-2013> <00:00:02>  NORMAL TERMINATION
 <Jan01-2013> <00:00:02>  END
 <Jan01-2013> <00:00:02>  DIRAC 2013.01  RunTime: Jan01-2013 00:00:02  Nodes: 1  Procs: 1
 <Jan01-2013> <00:00:02>  NORMAL TERMINATION
 <Jan01-2013> <00:00:02>  END
 <Jan01-2013> <00:00:02>  ADF 2013.01  RunTime: Jan01-2013 00:00:02  Nodes: 1  Procs: 1
 <Jan01-2013> <00:00:02>  Oxygen (QZ, all electron, 8S 4P 2D 2F)
 <Jan01-2013> <00:00:02>  RunType   : CREATE
 <Jan01-2013> <00:00:03>  Net Charge: 0 (Nuclei minus Electrons)
 <Jan01-2013> <00:00:03>  Symmetry  : ATOM
  Coordinates
    Atom         X           Y           Z   (Angstrom)
    1.O         0.000000    0.000000    0.000000
 <Jan01-2013> <00:00:03>  >>>> CORORT
 <Jan01-2013> <00:00:03>  >>>> FITINT
 <Jan01-2013> <00:00:03>  >>>> CLSMAT
 <Jan01-2013> <00:00:03>  >>>> ORTHON
 <Jan01-2013> <00:00:03>  >>>> GENPT
 <Jan01-2013> <00:00:03>  Acc.Num.Int.=  10.000
 <Jan01-2013> <00:00:03>  Block Length=  61
 <Jan01-2013> <00:00:03>  >>>> PTBAS
 <Jan01-2013> <00:00:03>  >>>> CYCLE
 <Jan01-2013> <00:00:03>    1
 <Jan01-2013> <00:00:03>    2  ErrMat   9.74921119  MaxEl  4.13901188
 <Jan01-2013> <00:00:03>    3  ErrMat   3.70162575  MaxEl -2.91656479
 <Jan01-2013> <00:00:03>    4  ErrMat   2.94969143  MaxEl -1.91814781
 <Jan01-2013> <00:00:03>    5  ErrMat   1.88970508  MaxEl -1.07111528
 <Jan01-2013> <00:00:03>    6  ErrMat   0.04645268  MaxEl -0.01876707
 <Jan01-2013> <00:00:03>    7  ErrMat   0.02377733  MaxEl  0.01063637
 <Jan01-2013> <00:00:03>    8  ErrMat   0.00251040  MaxEl -0.00114123
 <Jan01-2013> <00:00:03>    9  ErrMat   0.00000968  MaxEl -0.00000432
 <Jan01-2013> <00:00:03>   10  ErrMat   0.00000018  MaxEl  0.00000007
 <Jan01-2013> <00:00:03>   11  ErrMat   0.00000000  MaxEl  0.00000000
 <Jan01-2013> <00:00:03>  SCF converged
 <Jan01-2013> <00:00:03>   12  ErrMat   0.00000000  MaxEl  0.00000000
 <Jan01-2013> <00:00:03>   Solutions with partially occupied orbitals may not be
 <Jan01-2013> <00:00:03>   lowest in energy. You might consider lowering the
 <Jan01-2013> <00:00:03>   symmetry in the input and explicitly specifying integer
 <Jan01-2013> <00:00:03>   occupations. In that case always check that you obtain
 <Jan01-2013> <00:00:03>   an aufbau solution.
 <Jan01-2013> <00:00:03>  >>>> POPAN
 <Jan01-2013> <00:00:03>  >>>> DEBYE
 <Jan01-2013> <00:00:03>  NORMAL TERMINATION
 <Jan01-2013> <00:00:03>  END

 *******************************************************************************
 *                                                                             *
 *  -------------------------------------                                      *
 *   Amsterdam Density Functional  (ADF)         2013.01   April 2, 2013       *
 *  -------------------------------------                                      *
 *                                               Build 201304112106            *
 *                                                                             *
 *                                                                             *
 *                            =====================                            *
 *                            |                   |                            *
 *                            |     D I R A C     |                            *
 *                            |                   |                            *
 *                            =====================                            *
 *                                                                             *
 *                                                                             *
 *   Online information and documentation:  http://www.scm.com                 *
 *   E-mail:  support@scm.com   info@scm.com                                   *
 *                                                                             *
 *   Scientific publications using ADF results must be properly referenced     *
 *   See the User Manuals (or the web site) for recommended citations          *
 *   The terms and conditions of the End User License Agreement apply to       *
 *   the use of ADF, http://www.scm.com/Sales/LicAgreement.html                *
 *                                                                             *
 ****************************  x86_64_linux_intel  *****************************
 
 Licensed to: Prof. Cacier Hadad / University of Antioquia / Medellin / COLOMBIA
 SCM User ID: u15319
  
 DIRAC 2013.01  RunTime: Jan01-2013 00:00:04  Nodes: 1  Procs: 1

 Temporary files are created in /tmp/kid_0.65aLW4

1
 MERCURY ATOM all electron RELATIVISTIC, Point Nuc, A and c f
 N J RN H ZN XION ANUC CLIGHT
 5000   22100.00000000197.36710137 80.00000000  0.00000000  201.970625  0.1370360E+03
  PH   PHI     EPS        DEL        DELRVR
  0.30  0.30     2500.00  0.00001000  0.00001000
 IDIRC  NC1  NDEBU NPRIN  IPUN IRCOR IWCOR
   1   300     0     0     0     0     0
   XALPHA      XLATTER      RNUC
  0.70000000  0.00000000  0.00000000 Point Charge
   XN   XL   XJ      XE          XZ      XDELL
  1.0  0.0  0.5   -2600.000       2.000     0.00000
  2.0  0.0  0.5    -425.000       2.000     0.00000
  2.0  1.0  0.5    -425.000       2.000     0.00000
  2.0  1.0  1.5    -425.000       4.000     0.00000
  3.0  0.0  0.5    -100.000       2.000     0.00000
  3.0  1.0  0.5    -100.000       2.000     0.00000
  3.0  1.0  1.5    -100.000       4.000     0.00000
  3.0  2.0  1.5     -80.000       4.000     0.00000
  3.0  2.0  2.5     -80.000       6.000     0.00000
  4.0  0.0  0.5     -22.000       2.000     0.00000
  4.0  1.0  0.5     -20.000       2.000     0.00000
  4.0  1.0  1.5     -20.000       4.000     0.00000
  4.0  2.0  1.5     -11.000       4.000     0.00000
  4.0  2.0  2.5     -11.000       6.000     0.00000
  5.0  0.0  0.5      -3.000       2.000     0.00000
  5.0  1.0  0.5      -2.200       2.000     0.00000
  5.0  1.0  1.5      -2.200       4.000     0.00000
  4.0  3.0  2.5      -1.000       6.000     0.00000
  4.0  3.0  3.5      -1.000       8.000     0.00000
  5.0  2.0  1.5      -0.500       4.000     0.00000
  5.0  2.0  2.5      -0.500       6.000     0.00000
  6.0  0.0  0.5      -0.200       2.000     0.00000
 ICORP=  0  NPCL=  0  DEMP=0.00  PEPS=0.000000
 R(1)=  0.1000000E-08 D=  0.1005080E+01 RNUC=  0.0000000E+00
 converged at cycle   71  DENSITY AVERAGING    0.0786
  MAXIMUM ERROR IN R.V(R) IS   0.62886379E-05
 Q,EY,EV,EZ,ESUM,ETOT,RHO  0.800000E+02 -0.496572E+03 -0.348382E+05 -0.496228E+05 -0.121443E+05 -0.196607E+05  0.241251E-08


 DIRAC CALCULATION
1                    MERCURY ATOM all electron RELATIVISTIC, Point Nuc, A and c from libtc


 EXCHANGE COEFFICIENT=  0.7000000           TAIL CORRECTION=  0.           NUCLEAR RADIUS=  0.000E+00
0                       ORBITAL    N    L    J     ELECTRONS     EIGENVALUE                DELTA OF EIGENV.

                          1S1/2  1.0  0.0  0.5     2.000       -0.3050991E+04                 0.4924760E-04
                          2S1/2  2.0  0.0  0.5     2.000       -0.5405089E+03                 0.4254074E-04
                          2P1/2  2.0  1.0  0.5     2.000       -0.5187363E+03                 0.4411548E-04
                          2P3/2  2.0  1.0  1.5     4.000       -0.4471398E+03                 0.4301762E-04
                          3S1/2  3.0  0.0  0.5     2.000       -0.1282616E+03                 0.3041592E-04
                          3P1/2  3.0  1.0  0.5     2.000       -0.1184367E+03                 0.3137989E-04
                          3P3/2  3.0  1.0  1.5     4.000       -0.1025748E+03                 0.2995242E-04
                          3D3/2  3.0  2.0  1.5     4.000       -0.8626975E+02                 0.3222472E-04
                          3D5/2  3.0  2.0  2.5     6.000       -0.8286728E+02                 0.3175282E-04
                          4S1/2  4.0  0.0  0.5     2.000       -0.2816781E+02                 0.1668735E-04
                          4P1/2  4.0  1.0  0.5     2.000       -0.2395484E+02                 0.1669817E-04
                          4P3/2  4.0  1.0  1.5     4.000       -0.2011425E+02                 0.1516031E-04
                          4D3/2  4.0  2.0  1.5     4.000       -0.1321824E+02                 0.1506585E-04
                          4D5/2  4.0  2.0  2.5     6.000       -0.1250170E+02                 0.1460097E-04
                          5S1/2  5.0  0.0  0.5     2.000       -0.4322160E+01                 0.4190347E-05
                          5P1/2  5.0  1.0  0.5     2.000       -0.2925196E+01                 0.3615407E-05
                          5P3/2  5.0  1.0  1.5     4.000       -0.2244086E+01                 0.2893507E-05
                          4F5/2  4.0  3.0  2.5     6.000       -0.3611586E+01                 0.1388062E-04
                          4F7/2  4.0  3.0  3.5     8.000       -0.3456598E+01                 0.1362401E-04
                          5D3/2  5.0  2.0  1.5     4.000       -0.3813662E+00                 0.1502810E-05
                          5D5/2  5.0  2.0  2.5     6.000       -0.3130964E+00                 0.1345942E-05
                          6S1/2  6.0  0.0  0.5     2.000       -0.2314499E+00                 0.2838078E-06


                                        NUCLEAR CHARGE=   80.000000
                            INTEGRAL OF CHARGE DENSITY=   80.000000
                           SUM OF THE ORBITAL ENERGIES= -12144.2566
                                          TOTAL ENERGY= -19660.7046
                                        KINETIC ENERGY=  22693.9156
                             NUCLEAR ATTRACTION ENERGY= -49622.7822
                             ELECTRON REPULSION ENERGY=   7640.5911
                                       EXCHANGE ENERGY=   -372.4292

 *******************************************************************************

                             D I R A C   E X I T
 NORMAL TERMINATION



 =================
 Timing Statistics
 =================
  
 Total Used :                     CPU=        0.95      System=        0.03     Elapsed=        1.15

 Calls  Section                     ( Mean, Percentage )
 ---------------------------------------------------------------------------------------------------
[...]
 <Jan01-2013> <06:42:26>    2  ErrMat   0.01481843  MaxEl  0.00325922
 <Jan01-2013> <06:42:30>    3  ErrMat   0.00878426  MaxEl -0.00202146
 <Jan01-2013> <06:42:34>    4  ErrMat   0.00708580  MaxEl  0.00120415
 <Jan01-2013> <06:42:38>    5  ErrMat   0.00178710  MaxEl  0.00029806
 <Jan01-2013> <06:42:43>    6  ErrMat   0.00040704  MaxEl -0.00005380
 <Jan01-2013> <06:42:47>    7  ErrMat   0.00015625  MaxEl -0.00002546
 <Jan01-2013> <06:42:51>    8  ErrMat   0.00004051  MaxEl  0.00000537
 <Jan01-2013> <06:42:57>    9  ErrMat   0.00001288  MaxEl -0.00000117
 <Jan01-2013> <06:43:01>   10  ErrMat   0.00000321  MaxEl -0.00000031
 <Jan01-2013> <06:43:03>  SCF converged
 <Jan01-2013> <06:43:06>   11  ErrMat   0.00000139  MaxEl -0.00000021
 <Jan01-2013> <06:43:10>  >>>> TOTEN
 <Jan01-2013> <06:43:16>  >>>> POPAN
 <Jan01-2013> <06:43:16>  >>>> DEBYE
 <Jan01-2013> <06:43:16>  >>>> AMETS
 <Jan01-2013> <06:43:16>  >>>> ENGRAD
  Coordinates in Frequency Displacement 88
    Atom         X           Y           Z   (Angstrom)
    1.Hg       -0.793279   -2.698549    0.778496
    2.O         0.633647   -3.947996    2.420562
    3.H         1.167628   -4.733518    2.209705
    4.H         1.045462   -3.554927    3.209892
    5.O        -2.288279   -2.690439    2.178477
    6.H        -2.725379   -3.640474    2.638811
    7.H        -2.991947   -2.041880    1.988415
    8.O        -3.153923   -4.717440    3.215036
    9.H        -4.013776   -5.079491    2.929903
   10.H        -3.152332   -4.711317    4.190670
   11.O         0.574014   -2.618524   -0.747158
   12.H         0.157906   -2.628346   -1.629879
   13.H         1.482217   -1.931466   -0.746655
   14.O         2.572856   -1.225767   -0.698435
   15.H         3.394977   -1.671204   -0.960554
   16.H         2.578821   -0.349132   -1.126423
 <Jan01-2013> <06:44:13>  >>>> CORORT
 <Jan01-2013> <06:44:13>  >>>> FITINT
 <Jan01-2013> <06:44:14>  >>>> CLSMAT
 <Jan01-2013> <06:44:16>  >>>> ORTHON
 <Jan01-2013> <06:44:16>  >>>> GENPT
 <Jan01-2013> <06:44:16>  Acc.Num.Int.=   6.000
 <Jan01-2013> <06:44:16>  Reusing previous cell geometry for gradient smoothing.
 <Jan01-2013> <06:44:17>  Block Length= 128
 <Jan01-2013> <06:44:17>  >>>> PTBAS
 <Jan01-2013> <06:44:55>  >>>> CYCLE
 <Jan01-2013> <06:44:57>    1
 <Jan01-2013> <06:45:01>    2  ErrMat   0.00010138  MaxEl -0.00001968
 <Jan01-2013> <06:45:05>    3  ErrMat   0.00005749  MaxEl  0.00000967
 <Jan01-2013> <06:45:10>    4  ErrMat   0.00003060  MaxEl -0.00000663
 <Jan01-2013> <06:45:15>    5  ErrMat   0.00000560  MaxEl -0.00000089
 <Jan01-2013> <06:45:18>  SCF converged
 <Jan01-2013> <06:45:20>    6  ErrMat   0.00000382  MaxEl  0.00000062
 <Jan01-2013> <06:45:24>  >>>> TOTEN
 <Jan01-2013> <06:45:31>  >>>> POPAN
 <Jan01-2013> <06:45:31>  >>>> DEBYE
 <Jan01-2013> <06:45:31>  >>>> AMETS
 <Jan01-2013> <06:45:32>  >>>> ENGRAD
  Coordinates in Frequency Displacement 89
    Atom         X           Y           Z   (Angstrom)
    1.Hg       -0.793279   -2.698549    0.778496
    2.O         0.633647   -3.947996    2.420562
    3.H         1.167628   -4.733518    2.209705
    4.H         1.045462   -3.554927    3.209892
    5.O        -2.288279   -2.690439    2.178477
    6.H        -2.725379   -3.640474    2.638811
    7.H        -2.991947   -2.041880    1.988415
    8.O        -3.153923   -4.717440    3.215036
    9.H        -4.013776   -5.079491    2.929903
   10.H        -3.152332   -4.711317    4.190670
   11.O         0.574014   -2.618524   -0.747158
   12.H         0.157906   -2.628346   -1.629879
   13.H         1.482217   -1.931466   -0.746655
   14.O         2.572856   -1.225767   -0.698435
   15.H         3.394977   -1.681204   -0.970554
   16.H         2.578821   -0.349132   -1.126423
 <Jan01-2013> <06:46:28>  >>>> CORORT
 <Jan01-2013> <06:46:29>  >>>> FITINT
 <Jan01-2013> <06:46:30>  >>>> CLSMAT
 <Jan01-2013> <06:46:32>  >>>> ORTHON
 <Jan01-2013> <06:46:32>  >>>> GENPT
 <Jan01-2013> <06:46:32>  Acc.Num.Int.=   6.000
 <Jan01-2013> <06:46:32>  Reusing previous cell geometry for gradient smoothing.
 <Jan01-2013> <06:46:32>  Block Length= 128
 <Jan01-2013> <06:46:32>  >>>> PTBAS
 <Jan01-2013> <06:47:11>  >>>> CYCLE
 <Jan01-2013> <06:47:12>    1
 <Jan01-2013> <06:47:17>    2  ErrMat   0.01362758  MaxEl -0.00368098
 <Jan01-2013> <06:47:21>    3  ErrMat   0.00835586  MaxEl -0.00246034
 <Jan01-2013> <06:47:29>    4  ErrMat   0.00541107  MaxEl  0.00109223
 <Jan01-2013> <06:47:37>    5  ErrMat   0.00080446  MaxEl -0.00016178
 <Jan01-2013> <06:47:41>    6  ErrMat   0.00047319  MaxEl -0.00009305
 <Jan01-2013> <06:47:45>    7  ErrMat   0.00011683  MaxEl -0.00001537
 <Jan01-2013> <06:47:50>    8  ErrMat   0.00003951  MaxEl  0.00000613
 <Jan01-2013> <06:47:54>    9  ErrMat   0.00001167  MaxEl -0.00000160
 <Jan01-2013> <06:47:58>   10  ErrMat   0.00000657  MaxEl  0.00000059
 <Jan01-2013> <06:48:00>  SCF converged
 <Jan01-2013> <06:48:03>   11  ErrMat   0.00000084  MaxEl -0.00000012
 <Jan01-2013> <06:48:09>  >>>> TOTEN
 <Jan01-2013> <06:48:15>  >>>> POPAN
 <Jan01-2013> <06:48:15>  >>>> DEBYE
 <Jan01-2013> <06:48:15>  >>>> AMETS
 <Jan01-2013> <06:48:15>  >>>> ENGRAD
  Coordinates in Frequency Displacement 90
    Atom         X           Y           Z   (Angstrom)
    1.Hg       -0.793279   -2.698549    0.778496
    2.O         0.633647   -3.947996    2.420562
    3.H         1.167628   -4.733518    2.209705
    4.H         1.045462   -3.554927    3.209892
    5.O        -2.288279   -2.690439    2.178477
    6.H        -2.725379   -3.640474    2.638811
    7.H        -2.991947   -2.041880    1.988415
    8.O        -3.153923   -4.717440    3.215036
    9.H        -4.013776   -5.079491    2.929903
   10.H        -3.152332   -4.711317    4.190670
   11.O         0.574014   -2.618524   -0.747158
   12.H         0.157906   -2.628346   -1.629879
   13.H         1.482217   -1.931466   -0.746655
   14.O         2.572856   -1.225767   -0.698435
   15.H         3.394977   -1.681204   -0.950554
   16.H         2.578821   -0.349132   -1.126423
 <Jan01-2013> <06:49:12>  >>>> CORORT
 <Jan01-2013> <06:49:12>  >>>> FITINT
 <Jan01-2013> <06:49:14>  >>>> CLSMAT
 <Jan01-2013> <06:49:16>  >>>> ORTHON
 <Jan01-2013> <06:49:16>  >>>> GENPT
 <Jan01-2013> <06:49:16>  Acc.Num.Int.=   6.000
 <Jan01-2013> <06:49:16>  Reusing previous cell geometry for gradient smoothing.
 <Jan01-2013> <06:49:16>  Block Length= 128
 <Jan01-2013> <06:49:16>  >>>> PTBAS
 <Jan01-2013> <06:49:55>  >>>> CYCLE
 <Jan01-2013> <06:49:57>    1
 <Jan01-2013> <06:50:01>    2  ErrMat   0.00004656  MaxEl  0.00001218
 <Jan01-2013> <06:50:05>    3  ErrMat   0.00003094  MaxEl  0.00000835
 <Jan01-2013> <06:50:09>    4  ErrMat   0.00002113  MaxEl -0.00000403
 <Jan01-2013> <06:50:14>    5  ErrMat   0.00000393  MaxEl -0.00000072
 <Jan01-2013> <06:50:17>  SCF converged
 <Jan01-2013> <06:50:19>    6  ErrMat   0.00000231  MaxEl  0.00000037
 <Jan01-2013> <06:50:24>  >>>> TOTEN
 <Jan01-2013> <06:50:31>  >>>> POPAN
 <Jan01-2013> <06:50:31>  >>>> DEBYE
 <Jan01-2013> <06:50:31>  >>>> AMETS
 <Jan01-2013> <06:50:32>  >>>> ENGRAD
  Coordinates in Frequency Displacement 91
    Atom         X           Y           Z   (Angstrom)
    1.Hg       -0.793279   -2.698549    0.778496
    2.O         0.633647   -3.947996    2.420562
    3.H         1.167628   -4.733518    2.209705
    4.H         1.045462   -3.554927    3.209892
    5.O        -2.288279   -2.690439    2.178477
    6.H        -2.725379   -3.640474    2.638811
    7.H        -2.991947   -2.041880    1.988415
    8.O        -3.153923   -4.717440    3.215036
    9.H        -4.013776   -5.079491    2.929903
   10.H        -3.152332   -4.711317    4.190670
   11.O         0.574014   -2.618524   -0.747158
   12.H         0.157906   -2.628346   -1.629879
   13.H         1.482217   -1.931466   -0.746655
   14.O         2.572856   -1.225767   -0.698435
   15.H         3.394977   -1.681204   -0.960554
   16.H         2.568821   -0.349132   -1.126423
 <Jan01-2013> <06:51:29>  >>>> CORORT
 <Jan01-2013> <06:51:29>  >>>> FITINT
 <Jan01-2013> <06:51:30>  >>>> CLSMAT
 <Jan01-2013> <06:51:32>  >>>> ORTHON
 <Jan01-2013> <06:51:32>  >>>> GENPT
 <Jan01-2013> <06:51:32>  Acc.Num.Int.=   6.000
 <Jan01-2013> <06:51:32>  Reusing previous cell geometry for gradient smoothing.
 <Jan01-2013> <06:51:32>  Block Length= 128
 <Jan01-2013> <06:51:33>  >>>> PTBAS
 <Jan01-2013> <06:52:11>  >>>> CYCLE
 <Jan01-2013> <06:52:13>    1
 <Jan01-2013> <06:52:17>    2  ErrMat   0.01267513  MaxEl -0.00325334
 <Jan01-2013> <06:52:21>    3  ErrMat   0.00826039  MaxEl -0.00214806
 <Jan01-2013> <06:52:31>    4  ErrMat   0.00687157  MaxEl -0.00115868
 <Jan01-2013> <06:52:35>    5  ErrMat   0.00092807  MaxEl -0.00010931
 <Jan01-2013> <06:52:40>    6  ErrMat   0.00039778  MaxEl  0.00006537
 <Jan01-2013> <06:52:44>    7  ErrMat   0.00011411  MaxEl -0.00001276
 <Jan01-2013> <06:52:48>    8  ErrMat   0.00003049  MaxEl -0.00000360
 <Jan01-2013> <06:52:52>    9  ErrMat   0.00001293  MaxEl  0.00000169
 <Jan01-2013> <06:52:57>   10  ErrMat   0.00000212  MaxEl -0.00000026
 <Jan01-2013> <06:52:59>  SCF converged
 <Jan01-2013> <06:53:01>   11  ErrMat   0.00000066  MaxEl -0.00000010
 <Jan01-2013> <06:53:06>  >>>> TOTEN
 <Jan01-2013> <06:53:11>  >>>> POPAN
 <Jan01-2013> <06:53:11>  >>>> DEBYE
 <Jan01-2013> <06:53:11>  >>>> AMETS
 <Jan01-2013> <06:53:12>  >>>> ENGRAD
  Coordinates in Frequency Displacement 92
    Atom         X           Y           Z   (Angstrom)
    1.Hg       -0.793279   -2.698549    0.778496
    2.O         0.633647   -3.947996    2.420562
    3.H         1.167628   -4.733518    2.209705
    4.H         1.045462   -3.554927    3.209892
    5.O        -2.288279   -2.690439    2.178477
    6.H        -2.725379   -3.640474    2.638811
    7.H        -2.991947   -2.041880    1.988415
    8.O        -3.153923   -4.717440    3.215036
    9.H        -4.013776   -5.079491    2.929903
   10.H        -3.152332   -4.711317    4.190670
   11.O         0.574014   -2.618524   -0.747158
   12.H         0.157906   -2.628346   -1.629879
   13.H         1.482217   -1.931466   -0.746655
   14.O         2.572856   -1.225767   -0.698435
   15.H         3.394977   -1.681204   -0.960554
   16.H         2.588821   -0.349132   -1.126423
 <Jan01-2013> <06:54:10>  >>>> CORORT
 <Jan01-2013> <06:54:10>  >>>> FITINT
 <Jan01-2013> <06:54:12>  >>>> CLSMAT
 <Jan01-2013> <06:54:14>  >>>> ORTHON
 <Jan01-2013> <06:54:14>  >>>> GENPT
 <Jan01-2013> <06:54:14>  Acc.Num.Int.=   6.000
 <Jan01-2013> <06:54:14>  Reusing previous cell geometry for gradient smoothing.
 <Jan01-2013> <06:54:14>  Block Length= 128
 <Jan01-2013> <06:54:15>  >>>> PTBAS
 <Jan01-2013> <06:54:53>  >>>> CYCLE
 <Jan01-2013> <06:54:55>    1
 <Jan01-2013> <06:54:59>    2  ErrMat   0.00003251  MaxEl  0.00000662
 <Jan01-2013> <06:55:03>    3  ErrMat   0.00002205  MaxEl -0.00000441
 <Jan01-2013> <06:55:08>    4  ErrMat   0.00001374  MaxEl -0.00000226
 <Jan01-2013> <06:55:14>    5  ErrMat   0.00000268  MaxEl -0.00000048
 <Jan01-2013> <06:55:16>  SCF converged
 <Jan01-2013> <06:55:18>    6  ErrMat   0.00000171  MaxEl -0.00000026
 <Jan01-2013> <06:55:23>  >>>> TOTEN
 <Jan01-2013> <06:55:28>  >>>> POPAN
 <Jan01-2013> <06:55:28>  >>>> DEBYE
 <Jan01-2013> <06:55:28>  >>>> AMETS
 <Jan01-2013> <06:55:28>  >>>> ENGRAD
  Coordinates in Frequency Displacement 93
    Atom         X           Y           Z   (Angstrom)
    1.Hg       -0.793279   -2.698549    0.778496
    2.O         0.633647   -3.947996    2.420562
    3.H         1.167628   -4.733518    2.209705
    4.H         1.045462   -3.554927    3.209892
    5.O        -2.288279   -2.690439    2.178477
    6.H        -2.725379   -3.640474    2.638811
    7.H        -2.991947   -2.041880    1.988415
    8.O        -3.153923   -4.717440    3.215036
    9.H        -4.013776   -5.079491    2.929903
   10.H        -3.152332   -4.711317    4.190670
   11.O         0.574014   -2.618524   -0.747158
   12.H         0.157906   -2.628346   -1.629879
   13.H         1.482217   -1.931466   -0.746655
   14.O         2.572856   -1.225767   -0.698435
   15.H         3.394977   -1.681204   -0.960554
   16.H         2.578821   -0.359132   -1.126423
 <Jan01-2013> <06:56:25>  >>>> CORORT
 <Jan01-2013> <06:56:25>  >>>> FITINT
 <Jan01-2013> <06:56:27>  >>>> CLSMAT
 <Jan01-2013> <06:56:28>  >>>> ORTHON
 <Jan01-2013> <06:56:29>  >>>> GENPT
 <Jan01-2013> <06:56:29>  Acc.Num.Int.=   6.000
 <Jan01-2013> <06:56:29>  Reusing previous cell geometry for gradient smoothing.
 <Jan01-2013> <06:56:29>  Block Length= 128
 <Jan01-2013> <06:56:29>  >>>> PTBAS
 <Jan01-2013> <06:57:09>  >>>> CYCLE
 <Jan01-2013> <06:57:11>    1
 <Jan01-2013> <06:57:15>    2  ErrMat   0.02048747  MaxEl -0.00565142
 <Jan01-2013> <06:57:20>    3  ErrMat   0.01030966  MaxEl -0.00279034
 <Jan01-2013> <06:57:24>    4  ErrMat   0.00464443  MaxEl -0.00095607
 <Jan01-2013> <06:57:30>    5  ErrMat   0.00161576  MaxEl -0.00024572
 <Jan01-2013> <06:57:34>    6  ErrMat   0.00051254  MaxEl  0.00006611
 <Jan01-2013> <06:57:39>    7  ErrMat   0.00014349  MaxEl -0.00001582
 <Jan01-2013> <06:57:44>    8  ErrMat   0.00002720  MaxEl -0.00000402
 <Jan01-2013> <06:57:50>    9  ErrMat   0.00002002  MaxEl  0.00000325
 <Jan01-2013> <06:57:55>   10  ErrMat   0.00000350  MaxEl  0.00000033
 <Jan01-2013> <06:57:57>  SCF converged
 <Jan01-2013> <06:57:59>   11  ErrMat   0.00000125  MaxEl  0.00000015
 <Jan01-2013> <06:58:03>  >>>> TOTEN
 <Jan01-2013> <06:58:09>  >>>> POPAN
 <Jan01-2013> <06:58:09>  >>>> DEBYE
 <Jan01-2013> <06:58:09>  >>>> AMETS
 <Jan01-2013> <06:58:09>  >>>> ENGRAD
  Coordinates in Frequency Displacement 94
    Atom         X           Y           Z   (Angstrom)
    1.Hg       -0.793279   -2.698549    0.778496
    2.O         0.633647   -3.947996    2.420562
    3.H         1.167628   -4.733518    2.209705
    4.H         1.045462   -3.554927    3.209892
    5.O        -2.288279   -2.690439    2.178477
    6.H        -2.725379   -3.640474    2.638811
    7.H        -2.991947   -2.041880    1.988415
    8.O        -3.153923   -4.717440    3.215036
    9.H        -4.013776   -5.079491    2.929903
   10.H        -3.152332   -4.711317    4.190670
   11.O         0.574014   -2.618524   -0.747158
   12.H         0.157906   -2.628346   -1.629879
   13.H         1.482217   -1.931466   -0.746655
   14.O         2.572856   -1.225767   -0.698435
   15.H         3.394977   -1.681204   -0.960554
   16.H         2.578821   -0.339132   -1.126423
 <Jan01-2013> <06:59:06>  >>>> CORORT
 <Jan01-2013> <06:59:06>  >>>> FITINT
 <Jan01-2013> <06:59:07>  >>>> CLSMAT
 <Jan01-2013> <06:59:09>  >>>> ORTHON
 <Jan01-2013> <06:59:09>  >>>> GENPT
 <Jan01-2013> <06:59:10>  Acc.Num.Int.=   6.000
 <Jan01-2013> <06:59:10>  Reusing previous cell geometry for gradient smoothing.
 <Jan01-2013> <06:59:10>  Block Length= 128
 <Jan01-2013> <06:59:10>  >>>> PTBAS
 <Jan01-2013> <06:59:49>  >>>> CYCLE
 <Jan01-2013> <06:59:51>    1
 <Jan01-2013> <06:59:55>    2  ErrMat   0.00029002  MaxEl -0.00007117
 <Jan01-2013> <06:59:59>    3  ErrMat   0.00012700  MaxEl -0.00003180
 <Jan01-2013> <07:00:03>    4  ErrMat   0.00004666  MaxEl  0.00000843
 <Jan01-2013> <07:00:07>    5  ErrMat   0.00003277  MaxEl -0.00000615
 <Jan01-2013> <07:00:12>    6  ErrMat   0.00000452  MaxEl -0.00000065
 <Jan01-2013> <07:00:16>  SCF converged
 <Jan01-2013> <07:00:18>    7  ErrMat   0.00000281  MaxEl  0.00000048
 <Jan01-2013> <07:00:23>  >>>> TOTEN
 <Jan01-2013> <07:00:29>  >>>> POPAN
 <Jan01-2013> <07:00:29>  >>>> DEBYE
 <Jan01-2013> <07:00:29>  >>>> AMETS
 <Jan01-2013> <07:00:29>  >>>> ENGRAD
  Coordinates in Frequency Displacement 95
    Atom         X           Y           Z   (Angstrom)
    1.Hg       -0.793279   -2.698549    0.778496
    2.O         0.633647   -3.947996    2.420562
    3.H         1.167628   -4.733518    2.209705
    4.H         1.045462   -3.554927    3.209892
    5.O        -2.288279   -2.690439    2.178477
    6.H        -2.725379   -3.640474    2.638811
    7.H        -2.991947   -2.041880    1.988415
    8.O        -3.153923   -4.717440    3.215036
    9.H        -4.013776   -5.079491    2.929903
   10.H        -3.152332   -4.711317    4.190670
   11.O         0.574014   -2.618524   -0.747158
   12.H         0.157906   -2.628346   -1.629879
   13.H         1.482217   -1.931466   -0.746655
   14.O         2.572856   -1.225767   -0.698435
   15.H         3.394977   -1.681204   -0.960554
   16.H         2.578821   -0.349132   -1.136423
 <Jan01-2013> <07:01:29>  >>>> CORORT
 <Jan01-2013> <07:01:29>  >>>> FITINT
 <Jan01-2013> <07:01:30>  >>>> CLSMAT
 <Jan01-2013> <07:01:32>  >>>> ORTHON
 <Jan01-2013> <07:01:32>  >>>> GENPT
 <Jan01-2013> <07:01:32>  Acc.Num.Int.=   6.000
 <Jan01-2013> <07:01:32>  Reusing previous cell geometry for gradient smoothing.
 <Jan01-2013> <07:01:32>  Block Length= 128
 <Jan01-2013> <07:01:33>  >>>> PTBAS
 <Jan01-2013> <07:02:12>  >>>> CYCLE
 <Jan01-2013> <07:02:13>    1
 <Jan01-2013> <07:02:18>    2  ErrMat   0.01525732  MaxEl -0.00354530
 <Jan01-2013> <07:02:22>    3  ErrMat   0.00869317  MaxEl -0.00235748
 <Jan01-2013> <07:02:26>    4  ErrMat   0.00485891  MaxEl  0.00090945
 <Jan01-2013> <07:02:30>    5  ErrMat   0.00102451  MaxEl -0.00020930
 <Jan01-2013> <07:02:35>    6  ErrMat   0.00046162  MaxEl -0.00008988
 <Jan01-2013> <07:02:39>    7  ErrMat   0.00013237  MaxEl -0.00001944
 <Jan01-2013> <07:02:45>    8  ErrMat   0.00003999  MaxEl  0.00000620
 <Jan01-2013> <07:02:49>    9  ErrMat   0.00001434  MaxEl -0.00000169
 <Jan01-2013> <07:02:54>   10  ErrMat   0.00000654  MaxEl -0.00000061
 <Jan01-2013> <07:02:56>  SCF converged
 <Jan01-2013> <07:02:59>   11  ErrMat   0.00000080  MaxEl -0.00000010
 <Jan01-2013> <07:03:03>  >>>> TOTEN
 <Jan01-2013> <07:03:08>  >>>> POPAN
 <Jan01-2013> <07:03:08>  >>>> DEBYE
 <Jan01-2013> <07:03:08>  >>>> AMETS
 <Jan01-2013> <07:03:09>  >>>> ENGRAD
  Coordinates in Frequency Displacement 96
    Atom         X           Y           Z   (Angstrom)
    1.Hg       -0.793279   -2.698549    0.778496
    2.O         0.633647   -3.947996    2.420562
    3.H         1.167628   -4.733518    2.209705
    4.H         1.045462   -3.554927    3.209892
    5.O        -2.288279   -2.690439    2.178477
    6.H        -2.725379   -3.640474    2.638811
    7.H        -2.991947   -2.041880    1.988415
    8.O        -3.153923   -4.717440    3.215036
    9.H        -4.013776   -5.079491    2.929903
   10.H        -3.152332   -4.711317    4.190670
   11.O         0.574014   -2.618524   -0.747158
   12.H         0.157906   -2.628346   -1.629879
   13.H         1.482217   -1.931466   -0.746655
   14.O         2.572856   -1.225767   -0.698435
   15.H         3.394977   -1.681204   -0.960554
   16.H         2.578821   -0.349132   -1.116423
 <Jan01-2013> <07:04:05>  >>>> CORORT
 <Jan01-2013> <07:04:06>  >>>> FITINT
 <Jan01-2013> <07:04:07>  >>>> CLSMAT
 <Jan01-2013> <07:04:09>  >>>> ORTHON
 <Jan01-2013> <07:04:09>  >>>> GENPT
 <Jan01-2013> <07:04:09>  Acc.Num.Int.=   6.000
 <Jan01-2013> <07:04:09>  Reusing previous cell geometry for gradient smoothing.
 <Jan01-2013> <07:04:09>  Block Length= 128
 <Jan01-2013> <07:04:09>  >>>> PTBAS
 <Jan01-2013> <07:04:48>  >>>> CYCLE
 <Jan01-2013> <07:04:50>    1
 <Jan01-2013> <07:04:54>    2  ErrMat   0.00008796  MaxEl  0.00001877
 <Jan01-2013> <07:04:59>    3  ErrMat   0.00005137  MaxEl  0.00001273
 <Jan01-2013> <07:05:03>    4  ErrMat   0.00003098  MaxEl -0.00000562
 <Jan01-2013> <07:05:09>    5  ErrMat   0.00000790  MaxEl -0.00000158
 <Jan01-2013> <07:05:13>    6  ErrMat   0.00000290  MaxEl  0.00000050
 <Jan01-2013> <07:05:15>  SCF converged
 <Jan01-2013> <07:05:17>    7  ErrMat   0.00000097  MaxEl  0.00000015
 <Jan01-2013> <07:05:25>  >>>> TOTEN
 <Jan01-2013> <07:05:30>  >>>> POPAN
 <Jan01-2013> <07:05:30>  >>>> DEBYE
 <Jan01-2013> <07:05:30>  >>>> AMETS
 <Jan01-2013> <07:05:30>  >>>> ENGRAD
 <Jan01-2013> <07:06:27>  Force Constants computed
 <Jan01-2013> <07:06:27>  NORMAL TERMINATION
 <Jan01-2013> <07:06:27>  END
 <Jan01-2013> <07:06:27>  Total Bonding Energy: -42.70030688 a.u.
