
 *******************************************************************************
 *                                                                             *
 *  -------------------------------------                                      *
 *   Amsterdam Density Functional  (ADF)         2013.01   April 2, 2013       *
 *  -------------------------------------                                      *
 *                                               Build 201304112106            *
 *                                                                             *
 *                                                                             *
 *                            =====================                            *
 *                            |                   |                            *
 *                            |     D I R A C     |                            *
 *                            |                   |                            *
 *                            =====================                            *
 *                                                                             *
 *                                                                             *
 *   Online information and documentation:  http://www.scm.com                 *
 *   E-mail:  support@scm.com   info@scm.com                                   *
 *                                                                             *
 *   Scientific publications using ADF results must be properly referenced     *
 *   See the User Manuals (or the web site) for recommended citations          *
 *   The terms and conditions of the End User License Agreement apply to       *
 *   the use of ADF, http://www.scm.com/Sales/LicAgreement.html                *
 *                                                                             *
 ****************************  x86_64_linux_intel  *****************************
 
 Licensed to: Prof. Cacier Hadad / University of Antioquia / Medellin / COLOMBIA
 SCM User ID: u15319
  
 DIRAC 2013.01  RunTime: Jan01-2013 00:00:01  Nodes: 1  Procs: 1

 Temporary files are created in /tmp/kid_0.8jlwpH

1
 HYDROGEN ATOM RELATIVISTIC, Point Nuc, A and c from libtc   
 N J RN H ZN XION ANUC CLIGHT
 5000    1100.00000000197.36710137  1.00000000  0.00000000    1.007825  0.1370360E+03
  PH   PHI     EPS        DEL        DELRVR
  0.30  0.30     2500.00  0.00001000  0.00001000
 IDIRC  NC1  NDEBU NPRIN  IPUN IRCOR IWCOR
   1   300     0     0     0     0     0
   XALPHA      XLATTER      RNUC
  0.70000000  0.00000000  0.00000000 Point Charge
   XN   XL   XJ      XE          XZ      XDELL
  1.0  0.0  0.5      -1.000       1.000     0.00000
 ICORP=  0  NPCL=  0  DEMP=0.00  PEPS=0.000000
 R(1)=  0.1000000E-08 D=  0.1005080E+01 RNUC=  0.0000000E+00
 converged at cycle   32  DENSITY AVERAGING    0.2400
  MAXIMUM ERROR IN R.V(R) IS   0.79874357E-05
 Q,EY,EV,EZ,ESUM,ETOT,RHO  0.100000E+01 -0.266614E+00 -0.619969E+00 -0.910779E+00 -0.203940E+00 -0.415998E+00  0.337036E-17


 DIRAC CALCULATION
1                    HYDROGEN ATOM RELATIVISTIC, Point Nuc, A and c from libtc


 EXCHANGE COEFFICIENT=  0.7000000           TAIL CORRECTION=  0.           NUCLEAR RADIUS=  0.000E+00
0                       ORBITAL    N    L    J     ELECTRONS     EIGENVALUE                DELTA OF EIGENV.

                          1S1/2  1.0  0.0  0.5     1.000       -0.2039397E+00                 0.2720093E-06


                                        NUCLEAR CHARGE=    1.000000
                            INTEGRAL OF CHARGE DENSITY=    1.000000
                           SUM OF THE ORBITAL ENERGIES=     -0.2039
                                          TOTAL ENERGY=     -0.4160
                                        KINETIC ENERGY=      0.4160
                             NUCLEAR ATTRACTION ENERGY=     -0.9108
                             ELECTRON REPULSION ENERGY=      0.2787
                                       EXCHANGE ENERGY=     -0.2000

 *******************************************************************************

                             D I R A C   E X I T
 NORMAL TERMINATION



 =================
 Timing Statistics
 =================
  
 Total Used :                     CPU=        0.10      System=        0.02     Elapsed=        1.05

 Calls  Section                     ( Mean, Percentage )
 ---------------------------------------------------------------------------------------------------
     2  ><      ................      0.00    0.01             0.00    0.00             0.00    0.00
     1  EXIT PROCEDURE .........      0.10   99.99             0.02  100.00             1.05  100.00


 Currently Open Files (EXIT00)
 ====================

 Unit    Access Format  Status   Type       Ident (file)
 -------------------------------------------------------
   3      SEQ    FORM   TRANSP  NORMAL      LOGFILE
                                          ( logfile )


 Buffered I/O statistics
 =======================
 Memory available:                     67108864
 Number of records fitting in memory:     16131
 Input : 100.0% of                            0  *4k bytes
 Output: 100.0% of                            0  *4k bytes
 Records from serial files evicted:           0
                    others evicted:           0
 Hash table lookups:          0 with          0 conflicts (100.00%)
(INPUT FILE)
Create H   file=/home/andyzapa/adf2013.01/atomicdata/ZORA/QZ4P/H
XC
GGA PBE
End
relativistic ZORA
Corepotentials t12.rel
End Input

 *******************************************************************************
 *                                                                             *
 *  -------------------------------------                                      *
 *   Amsterdam Density Functional  (ADF)         2013.01   April 2, 2013       *
 *  -------------------------------------                                      *
 *                                               Build 201304112215            *
 *                                                                             *
 *                                                                             *
 *                              =================                              *
 *                              |               |                              *
 *                              |     A D F     |                              *
 *                              |               |                              *
 *                              =================                              *
 *                                                                             *
 *                                                                             *
 *   Online information and documentation:  http://www.scm.com                 *
 *   E-mail:  support@scm.com   info@scm.com                                   *
 *                                                                             *
 *   Scientific publications using ADF results must be properly referenced     *
 *   See the User Manuals (or the web site) for recommended citations          *
 *   The terms and conditions of the End User License Agreement apply to       *
 *   the use of ADF, http://www.scm.com/Sales/LicAgreement.html                *
 *                                                                             *
 ********************  x86_64_linux_intel / platform_mpi  **********************
 
 Licensed to: Prof. Cacier Hadad / University of Antioquia / Medellin / COLOMBIA
 SCM User ID: u15319
  
 ADF 2013.01  RunTime: Jan01-2013 00:00:03  Nodes: 1  Procs: 1

 Temporary files are created in /tmp/kid_0.ZDmkR1

 Hydrogen (QZ, all electron, 5S 2P 2D)



 ===========================
 A T T A C H E D   F I L E S
 ===========================
  
 CREATE - Data File:    /home/andyzapa/adf2013.01/atomicdata/ZORA/QZ4P/H
                        Hydrogen (QZ, all electron, 5S 2P 2D)
 Core Potentials:
         file : t12.rel



 ===============================
 M O D E L   P A R A M E T E R S
 ===============================
  
 DENSITY FUNCTIONAL POTENTIAL (scf)
    LDA:                               PW92                                    == Not Default ==
    Gradient Corrections:              PBEc PBEx                               == Not Default ==

 SPIN  (restricted / unrestr.)
    Molecule:                          Restricted                               

 OTHER ASPECTS
    Relativistic Corrections:          scalar (ZORA,SAPA)                      == Not Default ==

    Nuclear Charge Density Model:      Point Charge Nuclei                                                                                                                                                                                     
    Core Treatment:                    Frozen Orbital(s)                        

    Hyperfine or Zeeman Interaction:   ---                                      



 =====================================
 S Y M M E T R Y ,   E L E C T R O N S
 =====================================
  
 Symmetry: ATOM

 Irreducible Representations, including subspecies
 -------------------------------------------------
 S
 P:x  P:y  P:z
 D:z2  D:x2-y2  D:xy  D:xz  D:yz
 F:z3  F:z  F:xyz  F:z2x  F:z2y  F:x  F:y


 Configuration of Valence Electrons
 ==================================

          Occupation Numbers
          -------------------------------------------------
 S        1
 P        0
 D        0
 F        0
          -------------------------------------------------

 Total:   1

 Net Charge: 0 (Nuclei minus Electrons)

 Preset values for MO occupations will be applied through SCF cycle no. 1000000
 Thereafter, the program will assign electrons to MOs that are spatially
 similar to the occupied MOs in a "reference" cycle ("KeepOrbitals").
 The reference cycle is always the PREVIOUS cycle: it will evolve with
 the SCF procedure.



 ================================
 (Slater-type)  F U N C T I O N S  ***  (Basis and Fit)  ***
 ================================
  

 Atom Type    1  (H)
 ==============

 Valence Basis Sets:   9
 -----------------------
   1 S    3.300000
   1 S    2.000000
   1 S    1.400000
   1 S    1.000000
   1 S    0.710000
   2 P    2.000000
   2 P    1.000000
   3 D    2.500000
   3 D    1.500000

 Charge Fitting Sets (for the computation of the Coulomb Potential):  22
 -----------------------------------------------------------------------
   1 S    6.600000
   1 S    4.620000
   1 S    3.230000
   1 S    2.260000
   1 S    1.580000
   1 S    1.100000
   1 S    0.770000
   2 S    1.000000
   2 P    5.300000
   2 P    3.870000
   2 P    2.820000
   2 P    2.060000
   2 P    1.500000
   3 D    5.800000
   3 D    4.070000
   3 D    2.850000
   3 D    2.000000
   4 F    4.500000
   4 F    3.350000
   4 F    2.500000
   5 G    5.000000
   5 G    3.000000


 BAS: List of all Elementary Cartesian Basis Functions
 =====================================================

 The numbering in the list below (to the right of the function characteristics) is referred
 to in print-outs of MO eigenvectors and Mulliken populations in the BAS representation
 (as contrasted to the SFO representation).

 Notes:
 1. The functions are characterized by a polynomial prefactor (powers of x,y,z and r) and
    an exponential decay factor alpha.
 2. Since the basis sets are specific for an atom TYPE, the individual functions occur on
    all atoms of that type.
 3. The word 'Core' in the left margin signals that it is a Core Function (CF) : not a
    degree of freedom in the valence set, but only used to ensure orthogonalization of
    the other valence basis functions on the frozen Core Orbitals.


 (power of) X  Y  Z  R     Alpha  on Atom
            ==========     =====     ==========

 H                                    1
                                  ---------------------------------------------------------------------------
            0  0  0  0     3.300      1
            0  0  0  0     2.000      2
            0  0  0  0     1.400      3
            0  0  0  0     1.000      4
            0  0  0  0     0.710      5
            1  0  0  0     2.000      6
            0  1  0  0     2.000      7
            0  0  1  0     2.000      8
            1  0  0  0     1.000      9
            0  1  0  0     1.000     10
            0  0  1  0     1.000     11
            2  0  0  0     2.500     12
            1  1  0  0     2.500     13
            1  0  1  0     2.500     14
            0  2  0  0     2.500     15
            0  1  1  0     2.500     16
            0  0  2  0     2.500     17
            2  0  0  0     1.500     18
            1  1  0  0     1.500     19
            1  0  1  0     1.500     20
            0  2  0  0     1.500     21
            0  1  1  0     1.500     22
            0  0  2  0     1.500     23

 Total number of charge fitting functions (nprimf)       107
 Total number of Cartesian basis functions (naos)         23
 Total number of Cartesian core functions  (ncos)          0



 BAS: List of all Elementary Cartesian Basis Functions
 =====================================================

 The numbering in the list below (to the right of the function characteristics) is referred
 to in print-outs of MO eigenvectors and Mulliken populations in the BAS representation
 (as contrasted to the SFO representation).

 Notes:
 1. The functions are characterized by a polynomial prefactor (powers of x,y,z and r) and
    an exponential decay factor alpha.
 2. Since the basis sets are specific for an atom TYPE, the individual functions occur on
    all atoms of that type.
 3. The word 'Core' in the left margin signals that it is a Core Function (CF) : not a
    degree of freedom in the valence set, but only used to ensure orthogonalization of
    the other valence basis functions on the frozen Core Orbitals.


 (power of) X  Y  Z  R     Alpha  on Atom
            ==========     =====     ==========

 H                                    1
                                  ---------------------------------------------------------------------------
            0  0  0  0     3.300      1
            0  0  0  0     2.000      2
            0  0  0  0     1.400      3
            0  0  0  0     1.000      4
            0  0  0  0     0.710      5
            1  0  0  0     2.000      6
            0  1  0  0     2.000      7
            0  0  1  0     2.000      8
            1  0  0  0     1.000      9
            0  1  0  0     1.000     10
            0  0  1  0     1.000     11
            2  0  0  0     2.500     12
            1  1  0  0     2.500     13
            1  0  1  0     2.500     14
            0  2  0  0     2.500     15
            0  1  1  0     2.500     16
            0  0  2  0     2.500     17
            2  0  0  0     1.500     18
            1  1  0  0     1.500     19
            1  0  1  0     1.500     20
            0  2  0  0     1.500     21
            0  1  1  0     1.500     22
            0  0  2  0     1.500     23
1
 ***************************************************************************************************



                                              ***********************
                                              *  T E C H N I C A L  *
                                              ***********************
  



 =============================================================
 P A R A L L E L I Z A T I O N  and  V E C T O R I Z A T I O N
 =============================================================
  
 Nr of parallel processes:                                1
 Maximum vector length in NumInt loops:                 128



 ===============
 I O  vs.  C P U  ***  (store numerical data on disk or recalculate)  ***
 ===============
  
 Basis functions:   recalculate when needed
 Fit functions:     recalculate when needed

 IO buffersize (Mb):                                     64.000000



 =====================
 S C F   U P D A T E S
 =====================
  
 Max. nr. of cycles:                               100
 Convergence criterion:                              0.0000000100
   secondary criterion:                              0.0000000100

 Mix parameter (when DIIS does not apply):           0.2000000000
 Special mix parameter for the first cycle:          1.0000000000


 DIIS (Direct Inversion in Iteration Space)
    Replace damping when SCF Error is below:         0.5000000000
    Apply anyway after SCF cycle:
                                                     5
    (Max.) nr. of expansion vectors:                10

    Upperbound on expansion coefficients:            5.0000000000
    (when exceeded, IterationSpace is re-built)
    2nd Upperbound on coefficients:                 25.0000000000
    (when exceeded, simple damping will be used)
 Automatic ElectronSmearing (in case of problematic SCF convergence) disabled



 =================
 P R E C I S I O N  ***  (General: NumInt, NeglectFunctionTails, ...)  ***
 =================
  

 NumInt:           Target precision:                10.0000000000
 -------           Initial precision:               10.0000000000
                   Min. precision (optimization):   10.0000000000

 Neglect Functions:          Basis functions:        0.1000000000E-11
 ------------------          Fit functions:          0.1000000000E-11



 ===========================
 L I N E A R   S C A L I N G
 ===========================
  

 Cut-off radii density fit:                        0.1000000000E-13
 Overlap cut-off criterion AO matrix elements:     0.1000000000E-11
 Cut-offs for Coulomb potential and fitted density:0.1000000000E-13
 Cut-off criterion for Coulomb multipole terms:    0.1000000000E-13
 Progressive Convergence parameter:                 0.000000000    
1
 ***************************************************************************************************



                                            ***************************
                                            *  C O M P U T A T I O N  *
                                            ***************************
  

 Number of elements of the density matrix on this node (used, total):       276       276



 ====================================================
 Numerical Integration : Voronoi Polyhedra (Te Velde)
 ====================================================
  
 General Accuracy Parameter :                         10.00

 Symmetry used in the points section:  ATOM  


 Summary of the Symmetry Unique Points:
 --------------------------------------
    Nr. of used Symmetry Operators                     1

    Points in the Atomic Spheres                      44
    Points in the Atomic Polyhedra                     0
    Points in the Outer Region                         0
    ----------------------------------------------------
    Total                                             44

    Sum of Weights                                 33854.777883

 Total nr. of points:         44
 Nr. of blocks:                1
 Block length:                44
 Nr. of dummy points:          0


 Test of Precision of the Numerical Integration Grid
 ===================================================

 Integral of the Total Core Density:                   0.00000000000000



 =====
 S C F
 =====
  

 CYCLE    1
 orbitals (Q,E):
 ---------------
 S :1...5            ( 1.00    -0.5000)  ( 0.00    -0.1102)  ( 0.00     0.2912)  ( 0.00     2.1458)
                     ( 0.00    15.1140)
 P :1...2            ( 0.00    -0.0467)  ( 0.00     1.6698)
 D :1...2            ( 0.00     0.4090)  ( 0.00     3.3827)

 CYCLE    2
 d-Pmat  mean:  0.40E-01
 imax=      4: -0.73E+00
 orbitals (Q,E):
 ---------------
 S :1...2            ( 1.00    -0.2213)  ( 0.00     0.0617)
 P :1...1            ( 0.00     0.1820)
 D :1...1            ( 0.00     0.6395)

 CYCLE    3
 d-Pmat  mean:  0.48E-02
 imax=      4:  0.66E-01
 orbitals (Q,E):
 ---------------
 S :1...2            ( 1.00    -0.2392)  ( 0.00     0.0523)
 P :1...1            ( 0.00     0.1713)
 D :1...1            ( 0.00     0.6290)

 CYCLE    4
 d-Pmat  mean:  0.47E-03
 imax=      4: -0.74E-02
 orbitals (Q,E):
 ---------------
 S :1...2            ( 1.00    -0.2386)  ( 0.00     0.0522)
 P :1...1            ( 0.00     0.1716)
 D :1...1            ( 0.00     0.6293)

 CYCLE    5
 d-Pmat  mean:  0.13E-04
 imax=      4:  0.20E-03
 orbitals (Q,E):
 ---------------
 S :1...2            ( 1.00    -0.2386)  ( 0.00     0.0522)
 P :1...1            ( 0.00     0.1716)
 D :1...1            ( 0.00     0.6293)

 CYCLE    6
 d-Pmat  mean:  0.14E-06
 imax=      4:  0.26E-05
 orbitals (Q,E):
 ---------------
 S :1...2            ( 1.00    -0.2386)  ( 0.00     0.0522)
 P :1...1            ( 0.00     0.1716)
 D :1...1            ( 0.00     0.6293)

 CYCLE    7
 d-Pmat  mean:  0.24E-08
 imax=      4:  0.39E-07
 orbitals (Q,E):
 ---------------
 S :1...2            ( 1.00    -0.2386)  ( 0.00     0.0522)
 P :1...1            ( 0.00     0.1716)
 D :1...1            ( 0.00     0.6293)

 SCF CONVERGED

 CYCLE    8
1
 ***************************************************************************************************



                                                *******************
                                                *  R E S U L T S  *
                                                *******************
  
 *** Setting up for NEW gradients in focky
 *** Using FIT density in focky

 Scaled ZORA Orbital Energies, per Irrep and Spin:
 =================================================
                        Occup              E (au)              E (eV)       Diff (eV) with prev. cycle
                        -----      --------------------        ------       --------------------------
 S
               1        1.000     -0.23860414448779E+00        -6.493              -2.14E-10
               2        0.000      0.52240780773202E-01         1.422
               3        0.000      0.50128711414796E+00        13.641
               4        0.000      0.23892611828176E+01        65.015
               5        0.000      0.15295018626305E+02       416.199
 P
               1        0.000      0.17156247999750E+00         4.668
               2        0.000      0.19364620405874E+01        52.694
 D
               1        0.000      0.62928666110105E+00        17.124
               2        0.000      0.36544214463356E+01        99.442


 Partially Occupied:
               1 S                -0.23860414448779E+00
  
 LUMO :        2 S                 0.52240780773202E-01
  


 Orbital Energies, all Irreps
 ========================================

 Irrep        no.  (spin)   Occup              E (au)                E (eV)
 ---------------------------------------------------------------------------
 S             1             1.00       -0.23860414448779E+00        -6.4927
 S             2             0.00        0.52240780773202E-01         1.4215
 P             1             0.00        0.17156247999750E+00         4.6685
 S             3             0.00        0.50128711414796E+00        13.6407
 D             1             0.00        0.62928666110105E+00        17.1238
 P             2             0.00        0.19364620405874E+01        52.6938
 S             4             0.00        0.23892611828176E+01        65.0151
 D             2             0.00        0.36544214463356E+01        99.4419
 S             5             0.00        0.15295018626305E+02       416.1986


 All Electron Calculation, thus no Orbital Energies of the Core Orbitals are calculated



 =======================================
 M U L L I K E N   P O P U L A T I O N S
 =======================================
  
 The survey below gives for each atom:
 a) the total charge (Z minus electrons)
 b) the net spin polarization (nr of electrons spin-A minus spin-B)
 c) for each spin the atomic electron valence density (integrated) per L-value.

 Atom              Charge    Spin density          S         P         D         F
 ----              ------    ------------       ------    ------    ------    ------
 1 H               0.0000                       1.0000    0.0000    0.0000    0.0000

 Populations of individual BAS functions
 ----------------------------------------
 1 H           -0.0037  0.0405  0.0399  0.5670  0.3563  0.0000  0.0000  0.0000  0.0000  0.0000
                0.0000  0.0000  0.0000  0.0000  0.0000  0.0000  0.0000  0.0000  0.0000  0.0000
                0.0000  0.0000  0.0000

 Gross Charges per Atom (Z minus electrons)
 ==========================================
             0.0000
 Net Total:  0.00000000


 Atom-Atom Population Matrix (off-diagonal elements not doubled)
 ===============================================================

     1 :     1.0000



 =============
 Dipole Moment  ***  (Debye)  ***
 =============
  
 Vector   :         0.00000000      0.00000000      0.00000000
 Magnitude:         0.00000000

 This molecular dipole moment is calculated with analytic integration



 =========================================
 Quadrupole Moment (Buckingham convention)  ***  (a.u.)  ***
 =========================================
  
      quad-xx        quad-xy        quad-xz        quad-yy        quad-yz        quad-zz
      0.00000000     0.00000000     0.00000000     0.00000000     0.00000000     0.00000000

 This molecular quadrupole moment is calculated with analytic integration



 ===============================================================================
 Electrostatic potential at the Nuclei due to valence electrons and other nuclei
 ===============================================================================
  
         Atom                  Potential
         ----                  ---------
     1)   H                   0.94463948
 
 
 ========================
 No memory problems found
 ========================
 
 Maximum number of active allocate calls:         378
 
 *******************************************************************************

                             A D F   E X I T
 NORMAL TERMINATION



 =================
 Timing Statistics
 =================
  
 Total Used :                     CPU=        0.19      System=        0.07     Elapsed=        2.23

 Calls  Section                     ( Mean, Percentage )
 ---------------------------------------------------------------------------------------------------
     3  ><      ................      0.00    0.30             0.00    2.08             0.05    6.22
     1  INIT    ................      0.01    5.81             0.00    5.84             0.72   32.33
     1  GEOMET  ................      0.01    4.80             0.03   41.59             0.41   18.16
     1  INPUTA  ................      0.00    1.32             0.00    0.00             0.00    0.16
     1  MAINSY  ................      0.01    2.78             0.00    5.26             0.20    9.00
     1  SYMFIT  ................      0.00    0.19             0.00    0.04             0.00    0.02
     1  CORORT  ................      0.00    0.26             0.00    0.00             0.01    0.30
     1  SYMORB  ................      0.00    0.30             0.00    0.55             0.00    0.04
     1  FITINT  ................      0.00    1.25             0.00    4.44             0.01    0.46
     1  CLSMAT  ................      0.00    0.13             0.00    0.46             0.01    0.64
     1  ORTHON  ................      0.00    0.48             0.00    1.71             0.02    0.69
     1  GENPT   ................      0.00    2.49             0.00    5.39             0.04    1.82
     1  PTBAS   ................      0.00    1.55             0.00    0.00             0.02    0.74
     8  FOCKY   ................      0.01   45.52             0.00   17.92             0.02    8.91
     8  FOCKTR  ................      0.00    1.18             0.00    0.87             0.00    0.13
     8  FOCKNM  ................      0.00    0.14             0.00    0.10             0.00    0.02
     8  SDIIS   ................      0.00    2.14             0.00    1.49             0.03   10.22
     8  EMERGE  ................      0.00   11.58             0.00    6.81             0.01    4.62
     1  COREPS  ................      0.00    2.13             0.00    0.00             0.01    0.34
     1  POPAN   ................      0.00    1.63             0.00    0.00             0.05    2.33
     1  DEBYE   ................      0.00    0.44             0.00    0.00             0.03    1.25
     1  QMPOT   ................      0.00    0.06             0.00    4.13             0.00    0.14
     1  EXIT PROCEDURE .........      0.03   13.51             0.00    1.31             0.03    1.48


 Currently Open Files (EXIT00)
 ====================

 Unit    Access Format  Status   Type       Ident (file)
 -------------------------------------------------------
   3      SEQ    FORM   TRANSP  NORMAL      LOGFILE
                                          ( logfile )


 Buffered I/O statistics
 =======================
 Memory available:                     67108864
 Number of records fitting in memory:     16131
 Input :   1.3% of                         3604  *4k bytes
 Output:  10.6% of                         1855  *4k bytes
 Records from serial files evicted:           0
                    others evicted:           0
 Hash table lookups:      14887 with          0 conflicts (  0.00%)

 ***************************************************************************************************
 (LOGFILE)
 <Jan01-2013> <00:00:01>  DIRAC 2013.01  RunTime: Jan01-2013 00:00:01  Nodes: 1  Procs: 1
 <Jan01-2013> <00:00:02>  NORMAL TERMINATION
 <Jan01-2013> <00:00:02>  END
 <Jan01-2013> <00:00:03>  ADF 2013.01  RunTime: Jan01-2013 00:00:03  Nodes: 1  Procs: 1
 <Jan01-2013> <00:00:03>  Hydrogen (QZ, all electron, 5S 2P 2D)
 <Jan01-2013> <00:00:03>  RunType   : CREATE
 <Jan01-2013> <00:00:03>  Net Charge: 0 (Nuclei minus Electrons)
 <Jan01-2013> <00:00:03>  Symmetry  : ATOM
  Coordinates
    Atom         X           Y           Z   (Angstrom)
    1.H         0.000000    0.000000    0.000000
 <Jan01-2013> <00:00:04>  >>>> CORORT
 <Jan01-2013> <00:00:04>  >>>> FITINT
 <Jan01-2013> <00:00:04>  >>>> CLSMAT
 <Jan01-2013> <00:00:04>  >>>> ORTHON
 <Jan01-2013> <00:00:04>  >>>> GENPT
 <Jan01-2013> <00:00:04>  Acc.Num.Int.=  10.000
 <Jan01-2013> <00:00:04>  Block Length=  44
 <Jan01-2013> <00:00:04>  >>>> PTBAS
 <Jan01-2013> <00:00:04>  >>>> CYCLE
 <Jan01-2013> <00:00:04>    1
 <Jan01-2013> <00:00:04>    2  ErrMat   0.03803841  MaxEl  0.03078708
 <Jan01-2013> <00:00:04>    3  ErrMat   0.00916622  MaxEl -0.00901560
 <Jan01-2013> <00:00:04>    4  ErrMat   0.00035667  MaxEl  0.00031421
 <Jan01-2013> <00:00:04>    5  ErrMat   0.00000962  MaxEl -0.00000892
 <Jan01-2013> <00:00:04>    6  ErrMat   0.00000013  MaxEl  0.00000008
 <Jan01-2013> <00:00:04>    7  ErrMat   0.00000000  MaxEl  0.00000000
 <Jan01-2013> <00:00:04>  SCF converged
 <Jan01-2013> <00:00:04>    8  ErrMat   0.00000000  MaxEl  0.00000000
 <Jan01-2013> <00:00:04>   Solutions with partially occupied orbitals may not be
 <Jan01-2013> <00:00:04>   lowest in energy. You might consider lowering the
 <Jan01-2013> <00:00:04>   symmetry in the input and explicitly specifying integer
 <Jan01-2013> <00:00:04>   occupations. In that case always check that you obtain
 <Jan01-2013> <00:00:04>   an aufbau solution.
 <Jan01-2013> <00:00:04>  >>>> POPAN
 <Jan01-2013> <00:00:04>  >>>> DEBYE
 <Jan01-2013> <00:00:04>  NORMAL TERMINATION
 <Jan01-2013> <00:00:04>  END

 *******************************************************************************
 *                                                                             *
 *  -------------------------------------                                      *
 *   Amsterdam Density Functional  (ADF)         2013.01   April 2, 2013       *
 *  -------------------------------------                                      *
 *                                               Build 201304112106            *
 *                                                                             *
 *                                                                             *
 *                            =====================                            *
 *                            |                   |                            *
 *                            |     D I R A C     |                            *
 *                            |                   |                            *
 *                            =====================                            *
 *                                                                             *
 *                                                                             *
 *   Online information and documentation:  http://www.scm.com                 *
 *   E-mail:  support@scm.com   info@scm.com                                   *
 *                                                                             *
 *   Scientific publications using ADF results must be properly referenced     *
 *   See the User Manuals (or the web site) for recommended citations          *
 *   The terms and conditions of the End User License Agreement apply to       *
 *   the use of ADF, http://www.scm.com/Sales/LicAgreement.html                *
 *                                                                             *
 ****************************  x86_64_linux_intel  *****************************
 
 Licensed to: Prof. Cacier Hadad / University of Antioquia / Medellin / COLOMBIA
 SCM User ID: u15319
  
 DIRAC 2013.01  RunTime: Jan01-2013 00:00:05  Nodes: 1  Procs: 1

 Temporary files are created in /tmp/kid_0.be9AKv

1
 OXYGEN ATOM all electron RELATIVISTIC, Point Nuc, A and c fr
 N J RN H ZN XION ANUC CLIGHT
 5000    4100.00000000197.36710137  8.00000000  0.00000000   15.994914  0.1370360E+03
  PH   PHI     EPS        DEL        DELRVR
  0.30  0.30     2500.00  0.00001000  0.00001000
 IDIRC  NC1  NDEBU NPRIN  IPUN IRCOR IWCOR
   1   300     0     0     0     0     0
   XALPHA      XLATTER      RNUC
  0.70000000  0.00000000  0.00000000 Point Charge
   XN   XL   XJ      XE          XZ      XDELL
  1.0  0.0  0.5      -5.000       2.000     0.00000
  2.0  0.0  0.5      -1.000       2.000     0.00000
  2.0  1.0  0.5      -1.000       2.000     0.00000
  2.0  1.0  1.5      -1.000       2.000     0.00000
 ICORP=  0  NPCL=  0  DEMP=0.00  PEPS=0.000000
 R(1)=  0.1000000E-08 D=  0.1005080E+01 RNUC=  0.0000000E+00
 converged at cycle   28  DENSITY AVERAGING    0.2400
  MAXIMUM ERROR IN R.V(R) IS   0.81125670E-05
 Q,EY,EV,EZ,ESUM,ETOT,RHO  0.800000E+01 -0.101247E+02 -0.114961E+03 -0.177573E+03 -0.405053E+02 -0.743427E+02  0.414766E-14


 DIRAC CALCULATION
1                    OXYGEN ATOM all electron RELATIVISTIC, Point Nuc, A and c from libtc


 EXCHANGE COEFFICIENT=  0.7000000           TAIL CORRECTION=  0.           NUCLEAR RADIUS=  0.000E+00
0                       ORBITAL    N    L    J     ELECTRONS     EIGENVALUE                DELTA OF EIGENV.

                          1S1/2  1.0  0.0  0.5     2.000       -0.1880014E+02                 0.7264359E-06
                          2S1/2  2.0  0.0  0.5     2.000       -0.8412236E+00                 0.5932752E-05
                          2P1/2  2.0  1.0  0.5     2.000       -0.3063203E+00                 0.5998471E-05
                          2P3/2  2.0  1.0  1.5     2.000       -0.3049609E+00                 0.5986971E-05


                                        NUCLEAR CHARGE=    8.000000
                            INTEGRAL OF CHARGE DENSITY=    8.000000
                           SUM OF THE ORBITAL ENERGIES=    -40.5053
                                          TOTAL ENERGY=    -74.3427
                                        KINETIC ENERGY=     74.4552
                             NUCLEAR ATTRACTION ENERGY=   -177.5730
                             ELECTRON REPULSION ENERGY=     36.3686
                                       EXCHANGE ENERGY=     -7.5935

 *******************************************************************************

                             D I R A C   E X I T
 NORMAL TERMINATION



 =================
 Timing Statistics
 =================
  
 Total Used :                     CPU=        0.13      System=        0.03     Elapsed=        0.40

 Calls  Section                     ( Mean, Percentage )
 ---------------------------------------------------------------------------------------------------
     2  ><      ................      0.00    0.00             0.00    0.03             0.00    0.00
     1  EXIT PROCEDURE .........      0.13  100.00             0.03   99.97             0.40  100.00


 Currently Open Files (EXIT00)
 ====================

 Unit    Access Format  Status   Type       Ident (file)
 -------------------------------------------------------
   3      SEQ    FORM   TRANSP  NORMAL      LOGFILE
                                          ( logfile )


 Buffered I/O statistics
 =======================
 Memory available:                     67108864
 Number of records fitting in memory:     16131
 Input : 100.0% of                            0  *4k bytes
 Output: 100.0% of                            0  *4k bytes
 Records from serial files evicted:           0
                    others evicted:           0
 Hash table lookups:          0 with          0 conflicts (100.00%)
(INPUT FILE)
Create O   file=/home/andyzapa/adf2013.01/atomicdata/ZORA/QZ4P/O
XC
GGA PBE
End
relativistic ZORA
Corepotentials t12.rel
End Input

 *******************************************************************************
 *                                                                             *
 *  -------------------------------------                                      *
 *   Amsterdam Density Functional  (ADF)         2013.01   April 2, 2013       *
 *  -------------------------------------                                      *
 *                                               Build 201304112215            *
 *                                                                             *
 *                                                                             *
 *                              =================                              *
 *                              |               |                              *
 *                              |     A D F     |                              *
 *                              |               |                              *
 *                              =================                              *
 *                                                                             *
 *                                                                             *
 *   Online information and documentation:  http://www.scm.com                 *
 *   E-mail:  support@scm.com   info@scm.com                                   *
 *                                                                             *
 *   Scientific publications using ADF results must be properly referenced     *
 *   See the User Manuals (or the web site) for recommended citations          *
 *   The terms and conditions of the End User License Agreement apply to       *
 *   the use of ADF, http://www.scm.com/Sales/LicAgreement.html                *
 *                                                                             *
 ********************  x86_64_linux_intel / platform_mpi  **********************
 
 Licensed to: Prof. Cacier Hadad / University of Antioquia / Medellin / COLOMBIA
 SCM User ID: u15319
  
 ADF 2013.01  RunTime: Jan01-2013 00:00:05  Nodes: 1  Procs: 1

 Temporary files are created in /tmp/kid_0.ogxTJ2

 Oxygen (QZ, all electron, 8S 4P 2D 2F)



 ===========================
 A T T A C H E D   F I L E S
 ===========================
  
 CREATE - Data File:    /home/andyzapa/adf2013.01/atomicdata/ZORA/QZ4P/O
                        Oxygen (QZ, all electron, 8S 4P 2D 2F)
 Core Potentials:
         file : t12.rel



 ===============================
 M O D E L   P A R A M E T E R S
 ===============================
  
 DENSITY FUNCTIONAL POTENTIAL (scf)
    LDA:                               PW92                                    == Not Default ==
    Gradient Corrections:              PBEc PBEx                               == Not Default ==

 SPIN  (restricted / unrestr.)
    Molecule:                          Restricted                               

 OTHER ASPECTS
    Relativistic Corrections:          scalar (ZORA,SAPA)                      == Not Default ==

    Nuclear Charge Density Model:      Point Charge Nuclei                                                                                                                                                                                     
    Core Treatment:                    Frozen Orbital(s)                        

    Hyperfine or Zeeman Interaction:   ---                                      



 =====================================
 S Y M M E T R Y ,   E L E C T R O N S
 =====================================
  
 Symmetry: ATOM

 Irreducible Representations, including subspecies
 -------------------------------------------------
 S
 P:x  P:y  P:z
 D:z2  D:x2-y2  D:xy  D:xz  D:yz
 F:z3  F:z  F:xyz  F:z2x  F:z2y  F:x  F:y


 Configuration of Valence Electrons
 ==================================

          Occupation Numbers
          -------------------------------------------------
 S        2*2
 P        4
 D        0
 F        0
          -------------------------------------------------

 Total:   8

 Net Charge: 0 (Nuclei minus Electrons)

 Preset values for MO occupations will be applied through SCF cycle no. 1000000
 Thereafter, the program will assign electrons to MOs that are spatially
 similar to the occupied MOs in a "reference" cycle ("KeepOrbitals").
 The reference cycle is always the PREVIOUS cycle: it will evolve with
 the SCF procedure.



 ================================
 (Slater-type)  F U N C T I O N S  ***  (Basis and Fit)  ***
 ================================
  

 Atom Type    1  (O)
 ==============

 Valence Basis Sets:  16
 -----------------------
   1 S   14.800000
   1 S    8.750000
   1 S    6.650000
   2 S    7.100000
   2 S    3.200000
   2 S    2.050000
   2 S    1.500000
   2 S    0.750000
   2 P    5.700000
   2 P    3.050000
   2 P    1.650000
   2 P    1.000000
   3 D    2.500000
   3 D    1.500000
   4 F    4.000000
   4 F    2.000000

 Charge Fitting Sets (for the computation of the Coulomb Potential):  37
 -----------------------------------------------------------------------
   1 S   29.600000
   1 S   22.760000
   1 S   17.500000
   1 S   11.580000
   2 S   14.160000
   2 S   10.290000
   2 S    7.480000
   2 S    5.430000
   3 S    5.780000
   3 S    4.410000
   3 S    3.370000
   3 S    2.570000
   3 S    1.960000
   3 S    1.500000
   2 P   14.450000
   2 P    9.770000
   2 P    6.610000
   3 P    6.560000
   3 P    4.710000
   3 P    3.390000
   3 P    2.430000
   3 P    1.750000
   3 D   11.400000
   3 D    7.640000
   3 D    5.120000
   4 D    4.550000
   4 D    3.200000
   4 D    2.250000
   4 F   12.750000
   4 F    8.120000
   4 F    5.170000
   5 F    4.130000
   5 F    2.750000
   5 G    9.700000
   5 G    6.560000
   5 G    4.440000
   5 G    3.000000


 BAS: List of all Elementary Cartesian Basis Functions
 =====================================================

 The numbering in the list below (to the right of the function characteristics) is referred
 to in print-outs of MO eigenvectors and Mulliken populations in the BAS representation
 (as contrasted to the SFO representation).

 Notes:
 1. The functions are characterized by a polynomial prefactor (powers of x,y,z and r) and
    an exponential decay factor alpha.
 2. Since the basis sets are specific for an atom TYPE, the individual functions occur on
    all atoms of that type.
 3. The word 'Core' in the left margin signals that it is a Core Function (CF) : not a
    degree of freedom in the valence set, but only used to ensure orthogonalization of
    the other valence basis functions on the frozen Core Orbitals.


 (power of) X  Y  Z  R     Alpha  on Atom
            ==========     =====     ==========

 O                                    1
                                  ---------------------------------------------------------------------------
            0  0  0  0    14.800      1
            0  0  0  0     8.750      2
            0  0  0  0     6.650      3
            0  0  0  1     7.100      4
            0  0  0  1     3.200      5
            0  0  0  1     2.050      6
            0  0  0  1     1.500      7
            0  0  0  1     0.750      8
            1  0  0  0     5.700      9
            0  1  0  0     5.700     10
            0  0  1  0     5.700     11
            1  0  0  0     3.050     12
            0  1  0  0     3.050     13
            0  0  1  0     3.050     14
            1  0  0  0     1.650     15
            0  1  0  0     1.650     16
            0  0  1  0     1.650     17
            1  0  0  0     1.000     18
            0  1  0  0     1.000     19
            0  0  1  0     1.000     20
            2  0  0  0     2.500     21
            1  1  0  0     2.500     22
            1  0  1  0     2.500     23
            0  2  0  0     2.500     24
            0  1  1  0     2.500     25
            0  0  2  0     2.500     26
            2  0  0  0     1.500     27
            1  1  0  0     1.500     28
            1  0  1  0     1.500     29
            0  2  0  0     1.500     30
            0  1  1  0     1.500     31
            0  0  2  0     1.500     32
            3  0  0  0     4.000     33
            2  1  0  0     4.000     34
            2  0  1  0     4.000     35
            1  2  0  0     4.000     36
            1  1  1  0     4.000     37
            1  0  2  0     4.000     38
            0  3  0  0     4.000     39
            0  2  1  0     4.000     40
            0  1  2  0     4.000     41
            0  0  3  0     4.000     42
            3  0  0  0     2.000     43
            2  1  0  0     2.000     44
            2  0  1  0     2.000     45
            1  2  0  0     2.000     46
            1  1  1  0     2.000     47
            1  0  2  0     2.000     48
            0  3  0  0     2.000     49
            0  2  1  0     2.000     50
            0  1  2  0     2.000     51
            0  0  3  0     2.000     52

 Total number of charge fitting functions (nprimf)       184
 Total number of Cartesian basis functions (naos)         52
 Total number of Cartesian core functions  (ncos)          0



 BAS: List of all Elementary Cartesian Basis Functions
 =====================================================

 The numbering in the list below (to the right of the function characteristics) is referred
 to in print-outs of MO eigenvectors and Mulliken populations in the BAS representation
 (as contrasted to the SFO representation).

 Notes:
 1. The functions are characterized by a polynomial prefactor (powers of x,y,z and r) and
    an exponential decay factor alpha.
 2. Since the basis sets are specific for an atom TYPE, the individual functions occur on
    all atoms of that type.
 3. The word 'Core' in the left margin signals that it is a Core Function (CF) : not a
    degree of freedom in the valence set, but only used to ensure orthogonalization of
    the other valence basis functions on the frozen Core Orbitals.


 (power of) X  Y  Z  R     Alpha  on Atom
            ==========     =====     ==========

 O                                    1
                                  ---------------------------------------------------------------------------
            0  0  0  0    14.800      1
            0  0  0  0     8.750      2
            0  0  0  0     6.650      3
            0  0  0  1     7.100      4
            0  0  0  1     3.200      5
            0  0  0  1     2.050      6
            0  0  0  1     1.500      7
            0  0  0  1     0.750      8
            1  0  0  0     5.700      9
            0  1  0  0     5.700     10
            0  0  1  0     5.700     11
            1  0  0  0     3.050     12
            0  1  0  0     3.050     13
            0  0  1  0     3.050     14
            1  0  0  0     1.650     15
            0  1  0  0     1.650     16
            0  0  1  0     1.650     17
            1  0  0  0     1.000     18
            0  1  0  0     1.000     19
            0  0  1  0     1.000     20
            2  0  0  0     2.500     21
            1  1  0  0     2.500     22
            1  0  1  0     2.500     23
            0  2  0  0     2.500     24
            0  1  1  0     2.500     25
            0  0  2  0     2.500     26
            2  0  0  0     1.500     27
            1  1  0  0     1.500     28
            1  0  1  0     1.500     29
            0  2  0  0     1.500     30
            0  1  1  0     1.500     31
            0  0  2  0     1.500     32
            3  0  0  0     4.000     33
            2  1  0  0     4.000     34
            2  0  1  0     4.000     35
            1  2  0  0     4.000     36
            1  1  1  0     4.000     37
            1  0  2  0     4.000     38
            0  3  0  0     4.000     39
            0  2  1  0     4.000     40
            0  1  2  0     4.000     41
            0  0  3  0     4.000     42
            3  0  0  0     2.000     43
            2  1  0  0     2.000     44
            2  0  1  0     2.000     45
            1  2  0  0     2.000     46
            1  1  1  0     2.000     47
            1  0  2  0     2.000     48
            0  3  0  0     2.000     49
            0  2  1  0     2.000     50
            0  1  2  0     2.000     51
            0  0  3  0     2.000     52
1
 ***************************************************************************************************



                                              ***********************
                                              *  T E C H N I C A L  *
                                              ***********************
  



 =============================================================
 P A R A L L E L I Z A T I O N  and  V E C T O R I Z A T I O N
 =============================================================
  
 Nr of parallel processes:                                1
 Maximum vector length in NumInt loops:                 128



 ===============
 I O  vs.  C P U  ***  (store numerical data on disk or recalculate)  ***
 ===============
  
 Basis functions:   recalculate when needed
 Fit functions:     recalculate when needed

 IO buffersize (Mb):                                     64.000000



 =====================
 S C F   U P D A T E S
 =====================
  
 Max. nr. of cycles:                               100
 Convergence criterion:                              0.0000000100
   secondary criterion:                              0.0000000100

 Mix parameter (when DIIS does not apply):           0.2000000000
 Special mix parameter for the first cycle:          1.0000000000


 DIIS (Direct Inversion in Iteration Space)
    Replace damping when SCF Error is below:         0.5000000000
    Apply anyway after SCF cycle:
                                                     5
    (Max.) nr. of expansion vectors:                10

    Upperbound on expansion coefficients:            5.0000000000
    (when exceeded, IterationSpace is re-built)
    2nd Upperbound on coefficients:                 25.0000000000
    (when exceeded, simple damping will be used)
 Automatic ElectronSmearing (in case of problematic SCF convergence) disabled



 =================
 P R E C I S I O N  ***  (General: NumInt, NeglectFunctionTails, ...)  ***
 =================
  

 NumInt:           Target precision:                10.0000000000
 -------           Initial precision:               10.0000000000
                   Min. precision (optimization):   10.0000000000

 Neglect Functions:          Basis functions:        0.1000000000E-11
 ------------------          Fit functions:          0.1000000000E-11



 ===========================
 L I N E A R   S C A L I N G
 ===========================
  

 Cut-off radii density fit:                        0.1000000000E-13
 Overlap cut-off criterion AO matrix elements:     0.1000000000E-11
 Cut-offs for Coulomb potential and fitted density:0.1000000000E-13
 Cut-off criterion for Coulomb multipole terms:    0.1000000000E-13
 Progressive Convergence parameter:                 0.000000000    
1
 ***************************************************************************************************



                                            ***************************
                                            *  C O M P U T A T I O N  *
                                            ***************************
  

 Number of elements of the density matrix on this node (used, total):      1378      1378



 ====================================================
 Numerical Integration : Voronoi Polyhedra (Te Velde)
 ====================================================
  
 General Accuracy Parameter :                         10.00

 Symmetry used in the points section:  ATOM  


 Summary of the Symmetry Unique Points:
 --------------------------------------
    Nr. of used Symmetry Operators                     1

    Points in the Atomic Spheres                      61
    Points in the Atomic Polyhedra                     0
    Points in the Outer Region                         0
    ----------------------------------------------------
    Total                                             61

    Sum of Weights                                 58501.056183

 Total nr. of points:         61
 Nr. of blocks:                1
 Block length:                61
 Nr. of dummy points:          0


 Test of Precision of the Numerical Integration Grid
 ===================================================

 Integral of the Total Core Density:                   0.00000000000000



 =====
 S C F
 =====
  

 CYCLE    1
 orbitals (Q,E):
 ---------------
 S :1...8            ( 2.00   -32.0159)  ( 2.00    -8.0044)  ( 0.00    -3.5574)  ( 0.00    -1.9901)
                     ( 0.00    -1.2515)  ( 0.00     4.1058)  ( 0.00    41.2206)  ( 0.00   308.5800)
 P :1...4            ( 4.00    -7.9758)  ( 0.00    -3.5116)  ( 0.00    -1.8856)  ( 0.00     3.1956)
 D :1...2            ( 0.00    -3.5495)  ( 0.00    -1.9917)
 F :1...2            ( 0.00    -1.9999)  ( 0.00     1.0590)

 CYCLE    2
 d-Pmat  mean:  0.11E+01
 imax=      3: -0.25E+02
 orbitals (Q,E):
 ---------------
 S :1...3            ( 2.00   -14.5566)  ( 2.00    -0.0356)  ( 0.00     0.1667)
 P :1...2            ( 4.00     0.2048)  ( 0.00     0.7903)
 D :1...1            ( 0.00     0.7381)
 F :1...1            ( 0.00     1.6042)

 CYCLE    3
 d-Pmat  mean:  0.30E+00
 imax=     20: -0.24E+01
 orbitals (Q,E):
 ---------------
 S :1...3            ( 2.00   -16.2388)  ( 2.00    -0.4301)  ( 0.00     0.0620)
 P :1...2            ( 4.00     0.0108)  ( 0.00     0.4058)
 D :1...1            ( 0.00     0.5775)
 F :1...1            ( 0.00     1.4155)

 CYCLE    4
 d-Pmat  mean:  0.10E+00
 imax=     20: -0.11E+01
 orbitals (Q,E):
 ---------------
 S :1...3            ( 2.00   -17.2725)  ( 2.00    -0.6986)  ( 0.00     0.0275)
 P :1...2            ( 4.00    -0.1717)  ( 0.00     0.2612)
 D :1...1            ( 0.00     0.5085)
 F :1...1            ( 0.00     1.3362)

 CYCLE    5
 d-Pmat  mean:  0.56E-01
 imax=      3:  0.70E+00
 orbitals (Q,E):
 ---------------
 S :1...3            ( 2.00   -18.8741)  ( 2.00    -0.8425)  ( 0.00     0.0251)
 P :1...2            ( 4.00    -0.2957)  ( 0.00     0.2201)
 D :1...1            ( 0.00     0.5505)
 F :1...1            ( 0.00     1.3859)

 CYCLE    6
 d-Pmat  mean:  0.57E-02
 imax=      2:  0.75E-01
 orbitals (Q,E):
 ---------------
 S :1...3            ( 2.00   -18.9263)  ( 2.00    -0.8875)  ( 0.00     0.0144)
 P :1...2            ( 4.00    -0.3386)  ( 0.00     0.1983)
 D :1...1            ( 0.00     0.5241)
 F :1...1            ( 0.00     1.3583)

 CYCLE    7
 d-Pmat  mean:  0.80E-03
 imax=      6: -0.45E-02
 orbitals (Q,E):
 ---------------
 S :1...3            ( 2.00   -18.9106)  ( 2.00    -0.8796)  ( 0.00     0.0160)
 P :1...2            ( 4.00    -0.3310)  ( 0.00     0.2007)
 D :1...1            ( 0.00     0.5265)
 F :1...1            ( 0.00     1.3609)

 CYCLE    8
 d-Pmat  mean:  0.91E-04
 imax=      6:  0.77E-03
 orbitals (Q,E):
 ---------------
 S :1...3            ( 2.00   -18.9122)  ( 2.00    -0.8804)  ( 0.00     0.0159)
 P :1...2            ( 4.00    -0.3317)  ( 0.00     0.2005)
 D :1...1            ( 0.00     0.5262)
 F :1...1            ( 0.00     1.3606)

 CYCLE    9
 d-Pmat  mean:  0.72E-06
 imax=      2: -0.12E-04
 orbitals (Q,E):
 ---------------
 S :1...3            ( 2.00   -18.9122)  ( 2.00    -0.8804)  ( 0.00     0.0159)
 P :1...2            ( 4.00    -0.3317)  ( 0.00     0.2005)
 D :1...1            ( 0.00     0.5262)
 F :1...1            ( 0.00     1.3606)

 CYCLE   10
 d-Pmat  mean:  0.12E-07
 imax=      6: -0.16E-06
 orbitals (Q,E):
 ---------------
 S :1...3            ( 2.00   -18.9122)  ( 2.00    -0.8804)  ( 0.00     0.0159)
 P :1...2            ( 4.00    -0.3317)  ( 0.00     0.2005)
 D :1...1            ( 0.00     0.5262)
 F :1...1            ( 0.00     1.3606)

 CYCLE   11
 d-Pmat  mean:  0.11E-09
 imax=      6: -0.12E-08
 orbitals (Q,E):
 ---------------
 S :1...3            ( 2.00   -18.9122)  ( 2.00    -0.8804)  ( 0.00     0.0159)
 P :1...2            ( 4.00    -0.3317)  ( 0.00     0.2005)
 D :1...1            ( 0.00     0.5262)
 F :1...1            ( 0.00     1.3606)

 SCF CONVERGED

 CYCLE   12
1
 ***************************************************************************************************



                                                *******************
                                                *  R E S U L T S  *
                                                *******************
  
 *** Setting up for NEW gradients in focky
 *** Using FIT density in focky

 Scaled ZORA Orbital Energies, per Irrep and Spin:
 =================================================
                        Occup              E (au)              E (eV)       Diff (eV) with prev. cycle
                        -----      --------------------        ------       --------------------------
 S
               1        2.000     -0.18912163588984E+02      -514.626              -7.16E-09
               2        2.000     -0.88042536044543E+00       -23.958              -7.12E-09
               3        0.000      0.15917239287972E-01         0.433
               4        0.000      0.47157189633591E+00        12.832
               5        0.000      0.25092163529346E+01        68.279
               6        0.000      0.11901959076240E+02       323.869
               7        0.000      0.52347890774294E+02      1424.459
               8        0.000      0.32159312651573E+03      8750.994
 P
               1        4.000     -0.33172720151306E+00        -9.027              -6.97E-09
               2        0.000      0.20052917629028E+00         5.457
               3        0.000      0.16594440941108E+01        45.156
               4        0.000      0.12142335979422E+02       330.410
 D
               1        0.000      0.52623159764820E+00        14.319
               2        0.000      0.24055384908689E+01        65.458
 F
               1        0.000      0.13606224427136E+01        37.024
               2        0.000      0.70188296925037E+01       190.992


 Partially Occupied:
               1 P                -0.33172720151306E+00
  
 HOMO :        2 S                -0.88042536044543E+00
 LUMO :        3 S                 0.15917239287972E-01
  


 Orbital Energies, all Irreps
 ========================================

 Irrep        no.  (spin)   Occup              E (au)                E (eV)
 ---------------------------------------------------------------------------
 S             1             2.00       -0.18912163588984E+02      -514.6262
 S             2             2.00       -0.88042536044543E+00       -23.9576
 P             1             4.00       -0.33172720151306E+00        -9.0268
 S             3             0.00        0.15917239287972E-01         0.4331
 P             2             0.00        0.20052917629028E+00         5.4567
 S             4             0.00        0.47157189633591E+00        12.8321
 D             1             0.00        0.52623159764820E+00        14.3195
 F             1             0.00        0.13606224427136E+01        37.0244
 P             3             0.00        0.16594440941108E+01        45.1558
 D             2             0.00        0.24055384908689E+01        65.4580
 S             5             0.00        0.25092163529346E+01        68.2793
 F             2             0.00        0.70188296925037E+01       190.9921
 S             6             0.00        0.11901959076240E+02       323.8688
 P             4             0.00        0.12142335979422E+02       330.4098
 S             7             0.00        0.52347890774294E+02      1424.4586
 S             8             0.00        0.32159312651573E+03      8750.9942


 All Electron Calculation, thus no Orbital Energies of the Core Orbitals are calculated



 =======================================
 M U L L I K E N   P O P U L A T I O N S
 =======================================
  
 The survey below gives for each atom:
 a) the total charge (Z minus electrons)
 b) the net spin polarization (nr of electrons spin-A minus spin-B)
 c) for each spin the atomic electron valence density (integrated) per L-value.

 Atom              Charge    Spin density          S         P         D         F
 ----              ------    ------------       ------    ------    ------    ------
 1 O               0.0000                       4.0000    4.0000    0.0000    0.0000

 Populations of individual BAS functions
 ----------------------------------------
 1 O            0.0407  0.7707  1.2791 -0.1485  0.7639  1.0393  0.2537  0.0009  0.0450  0.0450
                0.0450  0.4807  0.4807  0.4807  0.6422  0.6422  0.6422  0.1654  0.1654  0.1654
                0.0000  0.0000  0.0000  0.0000  0.0000  0.0000  0.0000  0.0000  0.0000  0.0000
                0.0000  0.0000  0.0000  0.0000  0.0000  0.0000  0.0000  0.0000  0.0000  0.0000
                0.0000  0.0000  0.0000  0.0000  0.0000  0.0000  0.0000  0.0000  0.0000  0.0000
                0.0000  0.0000

 Gross Charges per Atom (Z minus electrons)
 ==========================================
             0.0000
 Net Total:  0.00000000


 Atom-Atom Population Matrix (off-diagonal elements not doubled)
 ===============================================================

     1 :     8.0000



 =============
 Dipole Moment  ***  (Debye)  ***
 =============
  
 Vector   :         0.00000000      0.00000000      0.00000000
 Magnitude:         0.00000000

 This molecular dipole moment is calculated with analytic integration



 =========================================
 Quadrupole Moment (Buckingham convention)  ***  (a.u.)  ***
 =========================================
  
      quad-xx        quad-xy        quad-xz        quad-yy        quad-yz        quad-zz
      0.00000000     0.00000000     0.00000000     0.00000000     0.00000000     0.00000000

 This molecular quadrupole moment is calculated with analytic integration



 ===============================================================================
 Electrostatic potential at the Nuclei due to valence electrons and other nuclei
 ===============================================================================
  
         Atom                  Potential
         ----                  ---------
     1)   O                  22.26490088
 
 
 ========================
 No memory problems found
 ========================
 
 Maximum number of active allocate calls:         476
 
 *******************************************************************************

                             A D F   E X I T
 NORMAL TERMINATION



 =================
 Timing Statistics
 =================
  
 Total Used :                     CPU=        0.31      System=        0.05     Elapsed=        1.47

 Calls  Section                     ( Mean, Percentage )
 ---------------------------------------------------------------------------------------------------
     3  ><      ................      0.00    0.66             0.00    0.03             0.02    4.41
     1  INIT    ................      0.01    4.74             0.00    0.00             0.16   10.92
     1  GEOMET  ................      0.01    1.60             0.02   50.89             0.14    9.54
     1  INPUTA  ................      0.00    0.76             0.00    0.67             0.00    0.24
     1  MAINSY  ................      0.01    2.93             0.00    1.25             0.07    4.58
     1  SYMFIT  ................      0.00    0.13             0.00    0.00             0.00    0.03
     1  CORORT  ................      0.00    0.15             0.00    0.00             0.01    0.37
     1  SYMORB  ................      0.00    0.42             0.00    0.00             0.00    0.09
     1  FITINT  ................      0.01    2.72             0.00    0.00             0.02    1.52
     1  CLSMAT  ................      0.00    0.21             0.00    0.00             0.02    1.57
     1  ORTHON  ................      0.00    0.84             0.00    0.00             0.02    1.65
     1  GENPT   ................      0.01    3.65             0.00    0.00             0.06    3.81
     1  PTBAS   ................      0.00    1.11             0.00    0.00             0.02    1.23
    12  FOCKY   ................      0.01   44.97             0.00   32.03             0.03   23.57
    12  FOCKTR  ................      0.00    1.55             0.00    0.35             0.00    0.34
    12  FOCKNM  ................      0.00    0.16             0.00    0.04             0.00    0.04
    12  SDIIS   ................      0.00    2.32             0.00    1.29             0.02   12.78
    12  EMERGE  ................      0.00   17.77             0.00    9.17             0.01   10.16
     1  COREPS  ................      0.01    1.92             0.00    0.13             0.08    5.17
     1  POPAN   ................      0.00    1.31             0.00    0.00             0.01    0.96
     1  DEBYE   ................      0.00    0.38             0.00    0.00             0.03    2.20
     1  QMPOT   ................      0.01    1.65             0.00    0.00             0.01    0.35
     1  EXIT PROCEDURE .........      0.03    8.06             0.00    4.16             0.07    4.48


 Currently Open Files (EXIT00)
 ====================

 Unit    Access Format  Status   Type       Ident (file)
 -------------------------------------------------------
   3      SEQ    FORM   TRANSP  NORMAL      LOGFILE
                                          ( logfile )


 Buffered I/O statistics
 =======================
 Memory available:                     67108864
 Number of records fitting in memory:     16131
 Input :   0.9% of                         6430  *4k bytes
 Output:   8.3% of                         2767  *4k bytes
 Records from serial files evicted:           0
                    others evicted:           0
 Hash table lookups:      25047 with          0 conflicts (  0.00%)

 ***************************************************************************************************
 (LOGFILE)
 <Jan01-2013> <00:00:01>  DIRAC 2013.01  RunTime: Jan01-2013 00:00:01  Nodes: 1  Procs: 1
 <Jan01-2013> <00:00:02>  NORMAL TERMINATION
 <Jan01-2013> <00:00:02>  END
 <Jan01-2013> <00:00:03>  ADF 2013.01  RunTime: Jan01-2013 00:00:03  Nodes: 1  Procs: 1
 <Jan01-2013> <00:00:03>  Hydrogen (QZ, all electron, 5S 2P 2D)
 <Jan01-2013> <00:00:03>  RunType   : CREATE
 <Jan01-2013> <00:00:03>  Net Charge: 0 (Nuclei minus Electrons)
 <Jan01-2013> <00:00:03>  Symmetry  : ATOM
  Coordinates
    Atom         X           Y           Z   (Angstrom)
    1.H         0.000000    0.000000    0.000000
 <Jan01-2013> <00:00:04>  >>>> CORORT
 <Jan01-2013> <00:00:04>  >>>> FITINT
 <Jan01-2013> <00:00:04>  >>>> CLSMAT
 <Jan01-2013> <00:00:04>  >>>> ORTHON
 <Jan01-2013> <00:00:04>  >>>> GENPT
 <Jan01-2013> <00:00:04>  Acc.Num.Int.=  10.000
 <Jan01-2013> <00:00:04>  Block Length=  44
 <Jan01-2013> <00:00:04>  >>>> PTBAS
 <Jan01-2013> <00:00:04>  >>>> CYCLE
 <Jan01-2013> <00:00:04>    1
 <Jan01-2013> <00:00:04>    2  ErrMat   0.03803841  MaxEl  0.03078708
 <Jan01-2013> <00:00:04>    3  ErrMat   0.00916622  MaxEl -0.00901560
 <Jan01-2013> <00:00:04>    4  ErrMat   0.00035667  MaxEl  0.00031421
 <Jan01-2013> <00:00:04>    5  ErrMat   0.00000962  MaxEl -0.00000892
 <Jan01-2013> <00:00:04>    6  ErrMat   0.00000013  MaxEl  0.00000008
 <Jan01-2013> <00:00:04>    7  ErrMat   0.00000000  MaxEl  0.00000000
 <Jan01-2013> <00:00:04>  SCF converged
 <Jan01-2013> <00:00:04>    8  ErrMat   0.00000000  MaxEl  0.00000000
 <Jan01-2013> <00:00:04>   Solutions with partially occupied orbitals may not be
 <Jan01-2013> <00:00:04>   lowest in energy. You might consider lowering the
 <Jan01-2013> <00:00:04>   symmetry in the input and explicitly specifying integer
 <Jan01-2013> <00:00:04>   occupations. In that case always check that you obtain
 <Jan01-2013> <00:00:04>   an aufbau solution.
 <Jan01-2013> <00:00:04>  >>>> POPAN
 <Jan01-2013> <00:00:04>  >>>> DEBYE
 <Jan01-2013> <00:00:04>  NORMAL TERMINATION
 <Jan01-2013> <00:00:04>  END
 <Jan01-2013> <00:00:05>  DIRAC 2013.01  RunTime: Jan01-2013 00:00:05  Nodes: 1  Procs: 1
 <Jan01-2013> <00:00:05>  NORMAL TERMINATION
 <Jan01-2013> <00:00:05>  END
 <Jan01-2013> <00:00:05>  ADF 2013.01  RunTime: Jan01-2013 00:00:05  Nodes: 1  Procs: 1
 <Jan01-2013> <00:00:05>  Oxygen (QZ, all electron, 8S 4P 2D 2F)
 <Jan01-2013> <00:00:05>  RunType   : CREATE
 <Jan01-2013> <00:00:05>  Net Charge: 0 (Nuclei minus Electrons)
 <Jan01-2013> <00:00:05>  Symmetry  : ATOM
  Coordinates
    Atom         X           Y           Z   (Angstrom)
    1.O         0.000000    0.000000    0.000000
 <Jan01-2013> <00:00:05>  >>>> CORORT
 <Jan01-2013> <00:00:05>  >>>> FITINT
 <Jan01-2013> <00:00:05>  >>>> CLSMAT
 <Jan01-2013> <00:00:05>  >>>> ORTHON
 <Jan01-2013> <00:00:05>  >>>> GENPT
 <Jan01-2013> <00:00:05>  Acc.Num.Int.=  10.000
 <Jan01-2013> <00:00:06>  Block Length=  61
 <Jan01-2013> <00:00:06>  >>>> PTBAS
 <Jan01-2013> <00:00:06>  >>>> CYCLE
 <Jan01-2013> <00:00:06>    1
 <Jan01-2013> <00:00:06>    2  ErrMat   9.74921119  MaxEl  4.13901188
 <Jan01-2013> <00:00:06>    3  ErrMat   3.70162575  MaxEl -2.91656479
 <Jan01-2013> <00:00:06>    4  ErrMat   2.94969143  MaxEl -1.91814781
 <Jan01-2013> <00:00:06>    5  ErrMat   1.88970508  MaxEl -1.07111528
 <Jan01-2013> <00:00:06>    6  ErrMat   0.04645268  MaxEl -0.01876707
 <Jan01-2013> <00:00:06>    7  ErrMat   0.02377733  MaxEl  0.01063637
 <Jan01-2013> <00:00:06>    8  ErrMat   0.00251040  MaxEl -0.00114123
 <Jan01-2013> <00:00:06>    9  ErrMat   0.00000968  MaxEl -0.00000432
 <Jan01-2013> <00:00:06>   10  ErrMat   0.00000018  MaxEl  0.00000007
 <Jan01-2013> <00:00:06>   11  ErrMat   0.00000000  MaxEl  0.00000000
 <Jan01-2013> <00:00:06>  SCF converged
 <Jan01-2013> <00:00:06>   12  ErrMat   0.00000000  MaxEl  0.00000000
 <Jan01-2013> <00:00:06>   Solutions with partially occupied orbitals may not be
 <Jan01-2013> <00:00:06>   lowest in energy. You might consider lowering the
 <Jan01-2013> <00:00:06>   symmetry in the input and explicitly specifying integer
 <Jan01-2013> <00:00:06>   occupations. In that case always check that you obtain
 <Jan01-2013> <00:00:06>   an aufbau solution.
 <Jan01-2013> <00:00:06>  >>>> POPAN
 <Jan01-2013> <00:00:06>  >>>> DEBYE
 <Jan01-2013> <00:00:06>  NORMAL TERMINATION
 <Jan01-2013> <00:00:06>  END

 *******************************************************************************
 *                                                                             *
 *  -------------------------------------                                      *
 *   Amsterdam Density Functional  (ADF)         2013.01   April 2, 2013       *
 *  -------------------------------------                                      *
 *                                               Build 201304112106            *
 *                                                                             *
 *                                                                             *
 *                            =====================                            *
 *                            |                   |                            *
 *                            |     D I R A C     |                            *
 *                            |                   |                            *
 *                            =====================                            *
 *                                                                             *
 *                                                                             *
 *   Online information and documentation:  http://www.scm.com                 *
 *   E-mail:  support@scm.com   info@scm.com                                   *
 *                                                                             *
 *   Scientific publications using ADF results must be properly referenced     *
 *   See the User Manuals (or the web site) for recommended citations          *
 *   The terms and conditions of the End User License Agreement apply to       *
 *   the use of ADF, http://www.scm.com/Sales/LicAgreement.html                *
 *                                                                             *
 ****************************  x86_64_linux_intel  *****************************
 
 Licensed to: Prof. Cacier Hadad / University of Antioquia / Medellin / COLOMBIA
 SCM User ID: u15319
  
 DIRAC 2013.01  RunTime: Jan01-2013 00:00:07  Nodes: 1  Procs: 1

 Temporary files are created in /tmp/kid_0.CPLtJQ

1
 MERCURY ATOM all electron RELATIVISTIC, Point Nuc, A and c f
 N J RN H ZN XION ANUC CLIGHT
 5000   22100.00000000197.36710137 80.00000000  0.00000000  201.970625  0.1370360E+03
  PH   PHI     EPS        DEL        DELRVR
  0.30  0.30     2500.00  0.00001000  0.00001000
 IDIRC  NC1  NDEBU NPRIN  IPUN IRCOR IWCOR
   1   300     0     0     0     0     0
   XALPHA      XLATTER      RNUC
  0.70000000  0.00000000  0.00000000 Point Charge
   XN   XL   XJ      XE          XZ      XDELL
  1.0  0.0  0.5   -2600.000       2.000     0.00000
  2.0  0.0  0.5    -425.000       2.000     0.00000
  2.0  1.0  0.5    -425.000       2.000     0.00000
  2.0  1.0  1.5    -425.000       4.000     0.00000
  3.0  0.0  0.5    -100.000       2.000     0.00000
  3.0  1.0  0.5    -100.000       2.000     0.00000
  3.0  1.0  1.5    -100.000       4.000     0.00000
  3.0  2.0  1.5     -80.000       4.000     0.00000
  3.0  2.0  2.5     -80.000       6.000     0.00000
  4.0  0.0  0.5     -22.000       2.000     0.00000
  4.0  1.0  0.5     -20.000       2.000     0.00000
  4.0  1.0  1.5     -20.000       4.000     0.00000
  4.0  2.0  1.5     -11.000       4.000     0.00000
  4.0  2.0  2.5     -11.000       6.000     0.00000
  5.0  0.0  0.5      -3.000       2.000     0.00000
  5.0  1.0  0.5      -2.200       2.000     0.00000
  5.0  1.0  1.5      -2.200       4.000     0.00000
  4.0  3.0  2.5      -1.000       6.000     0.00000
  4.0  3.0  3.5      -1.000       8.000     0.00000
  5.0  2.0  1.5      -0.500       4.000     0.00000
  5.0  2.0  2.5      -0.500       6.000     0.00000
  6.0  0.0  0.5      -0.200       2.000     0.00000
 ICORP=  0  NPCL=  0  DEMP=0.00  PEPS=0.000000
 R(1)=  0.1000000E-08 D=  0.1005080E+01 RNUC=  0.0000000E+00
 converged at cycle   71  DENSITY AVERAGING    0.0786
  MAXIMUM ERROR IN R.V(R) IS   0.62886379E-05
 Q,EY,EV,EZ,ESUM,ETOT,RHO  0.800000E+02 -0.496572E+03 -0.348382E+05 -0.496228E+05 -0.121443E+05 -0.196607E+05  0.241251E-08


 DIRAC CALCULATION
1                    MERCURY ATOM all electron RELATIVISTIC, Point Nuc, A and c from libtc


 EXCHANGE COEFFICIENT=  0.7000000           TAIL CORRECTION=  0.           NUCLEAR RADIUS=  0.000E+00
0                       ORBITAL    N    L    J     ELECTRONS     EIGENVALUE                DELTA OF EIGENV.

                          1S1/2  1.0  0.0  0.5     2.000       -0.3050991E+04                 0.4924760E-04
                          2S1/2  2.0  0.0  0.5     2.000       -0.5405089E+03                 0.4254074E-04
                          2P1/2  2.0  1.0  0.5     2.000       -0.5187363E+03                 0.4411548E-04
                          2P3/2  2.0  1.0  1.5     4.000       -0.4471398E+03                 0.4301762E-04
                          3S1/2  3.0  0.0  0.5     2.000       -0.1282616E+03                 0.3041592E-04
                          3P1/2  3.0  1.0  0.5     2.000       -0.1184367E+03                 0.3137989E-04
                          3P3/2  3.0  1.0  1.5     4.000       -0.1025748E+03                 0.2995242E-04
                          3D3/2  3.0  2.0  1.5     4.000       -0.8626975E+02                 0.3222472E-04
                          3D5/2  3.0  2.0  2.5     6.000       -0.8286728E+02                 0.3175282E-04
                          4S1/2  4.0  0.0  0.5     2.000       -0.2816781E+02                 0.1668735E-04
                          4P1/2  4.0  1.0  0.5     2.000       -0.2395484E+02                 0.1669817E-04
                          4P3/2  4.0  1.0  1.5     4.000       -0.2011425E+02                 0.1516031E-04
                          4D3/2  4.0  2.0  1.5     4.000       -0.1321824E+02                 0.1506585E-04
                          4D5/2  4.0  2.0  2.5     6.000       -0.1250170E+02                 0.1460097E-04
                          5S1/2  5.0  0.0  0.5     2.000       -0.4322160E+01                 0.4190347E-05
                          5P1/2  5.0  1.0  0.5     2.000       -0.2925196E+01                 0.3615407E-05
                          5P3/2  5.0  1.0  1.5     4.000       -0.2244086E+01                 0.2893507E-05
                          4F5/2  4.0  3.0  2.5     6.000       -0.3611586E+01                 0.1388062E-04
                          4F7/2  4.0  3.0  3.5     8.000       -0.3456598E+01                 0.1362401E-04
                          5D3/2  5.0  2.0  1.5     4.000       -0.3813662E+00                 0.1502810E-05
                          5D5/2  5.0  2.0  2.5     6.000       -0.3130964E+00                 0.1345942E-05
                          6S1/2  6.0  0.0  0.5     2.000       -0.2314499E+00                 0.2838078E-06


                                        NUCLEAR CHARGE=   80.000000
                            INTEGRAL OF CHARGE DENSITY=   80.000000
                           SUM OF THE ORBITAL ENERGIES= -12144.2566
                                          TOTAL ENERGY= -19660.7046
                                        KINETIC ENERGY=  22693.9156
                             NUCLEAR ATTRACTION ENERGY= -49622.7822
                             ELECTRON REPULSION ENERGY=   7640.5911
                                       EXCHANGE ENERGY=   -372.4292

 *******************************************************************************

                             D I R A C   E X I T
 NORMAL TERMINATION



 =================
 Timing Statistics
 =================
  
 Total Used :                     CPU=        0.86      System=        0.03     Elapsed=        1.28

 Calls  Section                     ( Mean, Percentage )
 ---------------------------------------------------------------------------------------------------
[...]
    9.H        -0.120466   -4.770968    0.858774
   10.H        -0.092684   -5.132132   -0.648212
   11.O        -0.047963   -1.905648   -0.622612
   12.H        -0.062303   -2.902039   -0.384029
   13.H        -1.361770   -1.069669   -0.887811
   14.O         3.800076   -0.651952   -0.851052
   15.H         4.364187   -0.974243   -1.579637
   16.H         4.341116   -0.633895   -0.034868
 <Jan01-2013> <08:47:43>  >>>> CORORT
 <Jan01-2013> <08:47:43>  >>>> FITINT
 <Jan01-2013> <08:47:46>  >>>> CLSMAT
 <Jan01-2013> <08:47:50>  >>>> ORTHON
 <Jan01-2013> <08:47:50>  WARNING: Virtuals almost lin. dependent
 <Jan01-2013> <08:47:50>  WARNING: Consider using keyword DEPENDENCY
 <Jan01-2013> <08:47:50>  >>>> GENPT
 <Jan01-2013> <08:47:50>  Acc.Num.Int.=   6.000
 <Jan01-2013> <08:47:50>  Reusing previous cell geometry for gradient smoothing.
 <Jan01-2013> <08:47:51>  Block Length= 128
 <Jan01-2013> <08:47:51>  >>>> PTBAS
 <Jan01-2013> <08:50:02>  >>>> CYCLE
 <Jan01-2013> <08:50:07>    1
 <Jan01-2013> <08:50:22>    2  ErrMat   0.00005009  MaxEl -0.00000940
 <Jan01-2013> <08:50:41>    3  ErrMat   0.00003254  MaxEl -0.00000660
 <Jan01-2013> <08:50:55>    4  ErrMat   0.00001373  MaxEl -0.00000216
 <Jan01-2013> <08:51:09>    5  ErrMat   0.00000610  MaxEl -0.00000121
 <Jan01-2013> <08:51:23>    6  ErrMat   0.00000255  MaxEl  0.00000058
 <Jan01-2013> <08:51:30>  SCF converged
 <Jan01-2013> <08:51:36>    7  ErrMat   0.00000111  MaxEl -0.00000016
 <Jan01-2013> <08:51:49>  >>>> TOTEN
 <Jan01-2013> <08:52:04>  >>>> POPAN
 <Jan01-2013> <08:52:04>  >>>> DEBYE
 <Jan01-2013> <08:52:04>  >>>> AMETS
 <Jan01-2013> <08:52:04>  >>>> ENGRAD
  Coordinates in Frequency Displacement 89
    Atom         X           Y           Z   (Angstrom)
    1.Hg        1.828764   -1.370428   -0.717176
    2.O        -2.165215   -0.474913   -1.104553
    3.H        -2.553126   -0.723386   -1.962990
    4.H        -2.936308   -0.320280   -0.300366
    5.O        -3.773153   -0.054456    0.684090
    6.H        -4.601104   -0.562110    0.759149
    7.H        -3.992419    0.882659    0.838105
    8.O         0.117257   -4.422599   -0.017259
    9.H        -0.120466   -4.770968    0.858774
   10.H        -0.092684   -5.132132   -0.648212
   11.O        -0.047963   -1.905648   -0.622612
   12.H        -0.062303   -2.902039   -0.384029
   13.H        -1.361770   -1.069669   -0.887811
   14.O         3.800076   -0.651952   -0.851052
   15.H         4.364187   -0.984243   -1.589637
   16.H         4.341116   -0.633895   -0.034868
 <Jan01-2013> <08:56:25>  >>>> CORORT
 <Jan01-2013> <08:56:25>  >>>> FITINT
 <Jan01-2013> <08:56:28>  >>>> CLSMAT
 <Jan01-2013> <08:56:30>  >>>> ORTHON
 <Jan01-2013> <08:56:31>  WARNING: Virtuals almost lin. dependent
 <Jan01-2013> <08:56:31>  WARNING: Consider using keyword DEPENDENCY
 <Jan01-2013> <08:56:31>  >>>> GENPT
 <Jan01-2013> <08:56:31>  Acc.Num.Int.=   6.000
 <Jan01-2013> <08:56:31>  Reusing previous cell geometry for gradient smoothing.
 <Jan01-2013> <08:56:31>  Block Length= 128
 <Jan01-2013> <08:56:32>  >>>> PTBAS
 <Jan01-2013> <08:57:52>  >>>> CYCLE
 <Jan01-2013> <08:57:55>    1
 <Jan01-2013> <08:58:02>    2  ErrMat   0.01986669  MaxEl -0.00372349
 <Jan01-2013> <08:58:09>    3  ErrMat   0.00977143  MaxEl -0.00184731
 <Jan01-2013> <08:58:15>    4  ErrMat   0.00953925  MaxEl  0.00195124
 <Jan01-2013> <08:58:23>    5  ErrMat   0.00426717  MaxEl -0.00097607
 <Jan01-2013> <08:58:29>    6  ErrMat   0.00077431  MaxEl  0.00009936
 <Jan01-2013> <08:58:40>    7  ErrMat   0.00017032  MaxEl -0.00002105
 <Jan01-2013> <08:58:48>    8  ErrMat   0.00004736  MaxEl -0.00000570
 <Jan01-2013> <08:58:56>    9  ErrMat   0.00001218  MaxEl -0.00000151
 <Jan01-2013> <08:59:05>   10  ErrMat   0.00000375  MaxEl  0.00000082
 <Jan01-2013> <08:59:09>  SCF converged
 <Jan01-2013> <08:59:13>   11  ErrMat   0.00000124  MaxEl -0.00000023
 <Jan01-2013> <08:59:20>  >>>> TOTEN
 <Jan01-2013> <08:59:29>  >>>> POPAN
 <Jan01-2013> <08:59:29>  >>>> DEBYE
 <Jan01-2013> <08:59:30>  >>>> AMETS
 <Jan01-2013> <08:59:30>  >>>> ENGRAD
  Coordinates in Frequency Displacement 90
    Atom         X           Y           Z   (Angstrom)
    1.Hg        1.828764   -1.370428   -0.717176
    2.O        -2.165215   -0.474913   -1.104553
    3.H        -2.553126   -0.723386   -1.962990
    4.H        -2.936308   -0.320280   -0.300366
    5.O        -3.773153   -0.054456    0.684090
    6.H        -4.601104   -0.562110    0.759149
    7.H        -3.992419    0.882659    0.838105
    8.O         0.117257   -4.422599   -0.017259
    9.H        -0.120466   -4.770968    0.858774
   10.H        -0.092684   -5.132132   -0.648212
   11.O        -0.047963   -1.905648   -0.622612
   12.H        -0.062303   -2.902039   -0.384029
   13.H        -1.361770   -1.069669   -0.887811
   14.O         3.800076   -0.651952   -0.851052
   15.H         4.364187   -0.984243   -1.569637
   16.H         4.341116   -0.633895   -0.034868
 <Jan01-2013> <09:01:15>  >>>> CORORT
 <Jan01-2013> <09:01:15>  >>>> FITINT
 <Jan01-2013> <09:01:17>  >>>> CLSMAT
 <Jan01-2013> <09:01:21>  >>>> ORTHON
 <Jan01-2013> <09:01:21>  WARNING: Virtuals almost lin. dependent
 <Jan01-2013> <09:01:21>  WARNING: Consider using keyword DEPENDENCY
 <Jan01-2013> <09:01:21>  >>>> GENPT
 <Jan01-2013> <09:01:21>  Acc.Num.Int.=   6.000
 <Jan01-2013> <09:01:21>  Reusing previous cell geometry for gradient smoothing.
 <Jan01-2013> <09:01:22>  Block Length= 128
 <Jan01-2013> <09:01:22>  >>>> PTBAS
 <Jan01-2013> <09:02:45>  >>>> CYCLE
 <Jan01-2013> <09:02:48>    1
 <Jan01-2013> <09:02:56>    2  ErrMat   0.00020705  MaxEl -0.00004311
 <Jan01-2013> <09:03:04>    3  ErrMat   0.00009000  MaxEl -0.00001609
 <Jan01-2013> <09:03:12>    4  ErrMat   0.00006710  MaxEl -0.00001471
 <Jan01-2013> <09:03:21>    5  ErrMat   0.00004018  MaxEl  0.00000944
 <Jan01-2013> <09:03:32>    6  ErrMat   0.00000608  MaxEl -0.00000050
 <Jan01-2013> <09:03:36>  SCF converged
 <Jan01-2013> <09:03:40>    7  ErrMat   0.00000189  MaxEl  0.00000018
 <Jan01-2013> <09:03:47>  >>>> TOTEN
 <Jan01-2013> <09:03:57>  >>>> POPAN
 <Jan01-2013> <09:03:57>  >>>> DEBYE
 <Jan01-2013> <09:03:57>  >>>> AMETS
 <Jan01-2013> <09:03:57>  >>>> ENGRAD
  Coordinates in Frequency Displacement 91
    Atom         X           Y           Z   (Angstrom)
    1.Hg        1.828764   -1.370428   -0.717176
    2.O        -2.165215   -0.474913   -1.104553
    3.H        -2.553126   -0.723386   -1.962990
    4.H        -2.936308   -0.320280   -0.300366
    5.O        -3.773153   -0.054456    0.684090
    6.H        -4.601104   -0.562110    0.759149
    7.H        -3.992419    0.882659    0.838105
    8.O         0.117257   -4.422599   -0.017259
    9.H        -0.120466   -4.770968    0.858774
   10.H        -0.092684   -5.132132   -0.648212
   11.O        -0.047963   -1.905648   -0.622612
   12.H        -0.062303   -2.902039   -0.384029
   13.H        -1.361770   -1.069669   -0.887811
   14.O         3.800076   -0.651952   -0.851052
   15.H         4.364187   -0.984243   -1.579637
   16.H         4.331116   -0.633895   -0.034868
 <Jan01-2013> <09:05:29>  >>>> CORORT
 <Jan01-2013> <09:05:29>  >>>> FITINT
 <Jan01-2013> <09:05:31>  >>>> CLSMAT
 <Jan01-2013> <09:05:35>  >>>> ORTHON
 <Jan01-2013> <09:05:35>  WARNING: Virtuals almost lin. dependent
 <Jan01-2013> <09:05:35>  WARNING: Consider using keyword DEPENDENCY
 <Jan01-2013> <09:05:35>  >>>> GENPT
 <Jan01-2013> <09:05:35>  Acc.Num.Int.=   6.000
 <Jan01-2013> <09:05:36>  Reusing previous cell geometry for gradient smoothing.
 <Jan01-2013> <09:05:36>  Block Length= 128
 <Jan01-2013> <09:05:36>  >>>> PTBAS
 <Jan01-2013> <09:06:55>  >>>> CYCLE
 <Jan01-2013> <09:06:59>    1
 <Jan01-2013> <09:07:06>    2  ErrMat   0.01888747  MaxEl -0.00425153
 <Jan01-2013> <09:07:14>    3  ErrMat   0.00931816  MaxEl -0.00202260
 <Jan01-2013> <09:07:22>    4  ErrMat   0.01069592  MaxEl -0.00227801
 <Jan01-2013> <09:07:30>    5  ErrMat   0.00367637  MaxEl  0.00074672
 <Jan01-2013> <09:07:38>    6  ErrMat   0.00066043  MaxEl  0.00008510
 <Jan01-2013> <09:07:46>    7  ErrMat   0.00031423  MaxEl  0.00003217
 <Jan01-2013> <09:07:54>    8  ErrMat   0.00005623  MaxEl  0.00000587
 <Jan01-2013> <09:08:02>    9  ErrMat   0.00000823  MaxEl -0.00000080
 <Jan01-2013> <09:08:06>  SCF converged
 <Jan01-2013> <09:08:10>   10  ErrMat   0.00000501  MaxEl  0.00000052
 <Jan01-2013> <09:08:17>  >>>> TOTEN
 <Jan01-2013> <09:08:27>  >>>> POPAN
 <Jan01-2013> <09:08:27>  >>>> DEBYE
 <Jan01-2013> <09:08:27>  >>>> AMETS
 <Jan01-2013> <09:08:27>  >>>> ENGRAD
  Coordinates in Frequency Displacement 92
    Atom         X           Y           Z   (Angstrom)
    1.Hg        1.828764   -1.370428   -0.717176
    2.O        -2.165215   -0.474913   -1.104553
    3.H        -2.553126   -0.723386   -1.962990
    4.H        -2.936308   -0.320280   -0.300366
    5.O        -3.773153   -0.054456    0.684090
    6.H        -4.601104   -0.562110    0.759149
    7.H        -3.992419    0.882659    0.838105
    8.O         0.117257   -4.422599   -0.017259
    9.H        -0.120466   -4.770968    0.858774
   10.H        -0.092684   -5.132132   -0.648212
   11.O        -0.047963   -1.905648   -0.622612
   12.H        -0.062303   -2.902039   -0.384029
   13.H        -1.361770   -1.069669   -0.887811
   14.O         3.800076   -0.651952   -0.851052
   15.H         4.364187   -0.984243   -1.579637
   16.H         4.351116   -0.633895   -0.034868
 <Jan01-2013> <09:10:15>  >>>> CORORT
 <Jan01-2013> <09:10:15>  >>>> FITINT
 <Jan01-2013> <09:10:17>  >>>> CLSMAT
 <Jan01-2013> <09:10:20>  >>>> ORTHON
 <Jan01-2013> <09:10:20>  WARNING: Virtuals almost lin. dependent
 <Jan01-2013> <09:10:20>  WARNING: Consider using keyword DEPENDENCY
 <Jan01-2013> <09:10:20>  >>>> GENPT
 <Jan01-2013> <09:10:20>  Acc.Num.Int.=   6.000
 <Jan01-2013> <09:10:20>  Reusing previous cell geometry for gradient smoothing.
 <Jan01-2013> <09:10:20>  Block Length= 128
 <Jan01-2013> <09:10:21>  >>>> PTBAS
 <Jan01-2013> <09:11:38>  >>>> CYCLE
 <Jan01-2013> <09:11:42>    1
 <Jan01-2013> <09:11:50>    2  ErrMat   0.00011149  MaxEl -0.00002422
 <Jan01-2013> <09:11:58>    3  ErrMat   0.00005169  MaxEl -0.00001038
 <Jan01-2013> <09:12:06>    4  ErrMat   0.00003506  MaxEl -0.00000736
 <Jan01-2013> <09:12:15>    5  ErrMat   0.00002881  MaxEl  0.00000691
 <Jan01-2013> <09:12:24>    6  ErrMat   0.00000262  MaxEl  0.00000021
 <Jan01-2013> <09:12:28>  SCF converged
 <Jan01-2013> <09:12:32>    7  ErrMat   0.00000134  MaxEl  0.00000012
 <Jan01-2013> <09:12:39>  >>>> TOTEN
 <Jan01-2013> <09:12:49>  >>>> POPAN
 <Jan01-2013> <09:12:49>  >>>> DEBYE
 <Jan01-2013> <09:12:50>  >>>> AMETS
 <Jan01-2013> <09:12:50>  >>>> ENGRAD
  Coordinates in Frequency Displacement 93
    Atom         X           Y           Z   (Angstrom)
    1.Hg        1.828764   -1.370428   -0.717176
    2.O        -2.165215   -0.474913   -1.104553
    3.H        -2.553126   -0.723386   -1.962990
    4.H        -2.936308   -0.320280   -0.300366
    5.O        -3.773153   -0.054456    0.684090
    6.H        -4.601104   -0.562110    0.759149
    7.H        -3.992419    0.882659    0.838105
    8.O         0.117257   -4.422599   -0.017259
    9.H        -0.120466   -4.770968    0.858774
   10.H        -0.092684   -5.132132   -0.648212
   11.O        -0.047963   -1.905648   -0.622612
   12.H        -0.062303   -2.902039   -0.384029
   13.H        -1.361770   -1.069669   -0.887811
   14.O         3.800076   -0.651952   -0.851052
   15.H         4.364187   -0.984243   -1.579637
   16.H         4.341116   -0.643895   -0.034868
 <Jan01-2013> <09:14:38>  >>>> CORORT
 <Jan01-2013> <09:14:38>  >>>> FITINT
 <Jan01-2013> <09:14:41>  >>>> CLSMAT
 <Jan01-2013> <09:14:43>  >>>> ORTHON
 <Jan01-2013> <09:14:43>  WARNING: Virtuals almost lin. dependent
 <Jan01-2013> <09:14:43>  WARNING: Consider using keyword DEPENDENCY
 <Jan01-2013> <09:14:43>  >>>> GENPT
 <Jan01-2013> <09:14:43>  Acc.Num.Int.=   6.000
 <Jan01-2013> <09:14:44>  Reusing previous cell geometry for gradient smoothing.
 <Jan01-2013> <09:14:44>  Block Length= 128
 <Jan01-2013> <09:14:44>  >>>> PTBAS
 <Jan01-2013> <09:15:51>  >>>> CYCLE
 <Jan01-2013> <09:15:54>    1
 <Jan01-2013> <09:16:04>    2  ErrMat   0.01338190  MaxEl  0.00347109
 <Jan01-2013> <09:16:18>    3  ErrMat   0.00849596  MaxEl  0.00230683
 <Jan01-2013> <09:16:30>    4  ErrMat   0.00756195  MaxEl -0.00164727
 <Jan01-2013> <09:16:44>    5  ErrMat   0.00259048  MaxEl  0.00053370
 <Jan01-2013> <09:16:57>    6  ErrMat   0.00051092  MaxEl -0.00008416
 <Jan01-2013> <09:17:10>    7  ErrMat   0.00021877  MaxEl  0.00004051
 <Jan01-2013> <09:17:23>    8  ErrMat   0.00003132  MaxEl  0.00000407
 <Jan01-2013> <09:17:36>    9  ErrMat   0.00000813  MaxEl  0.00000126
 <Jan01-2013> <09:17:49>   10  ErrMat   0.00000445  MaxEl -0.00000093
 <Jan01-2013> <09:17:56>  SCF converged
 <Jan01-2013> <09:18:01>   11  ErrMat   0.00000077  MaxEl -0.00000010
 <Jan01-2013> <09:18:10>  >>>> TOTEN
 <Jan01-2013> <09:18:23>  >>>> POPAN
 <Jan01-2013> <09:18:23>  >>>> DEBYE
 <Jan01-2013> <09:18:23>  >>>> AMETS
 <Jan01-2013> <09:18:24>  >>>> ENGRAD
  Coordinates in Frequency Displacement 94
    Atom         X           Y           Z   (Angstrom)
    1.Hg        1.828764   -1.370428   -0.717176
    2.O        -2.165215   -0.474913   -1.104553
    3.H        -2.553126   -0.723386   -1.962990
    4.H        -2.936308   -0.320280   -0.300366
    5.O        -3.773153   -0.054456    0.684090
    6.H        -4.601104   -0.562110    0.759149
    7.H        -3.992419    0.882659    0.838105
    8.O         0.117257   -4.422599   -0.017259
    9.H        -0.120466   -4.770968    0.858774
   10.H        -0.092684   -5.132132   -0.648212
   11.O        -0.047963   -1.905648   -0.622612
   12.H        -0.062303   -2.902039   -0.384029
   13.H        -1.361770   -1.069669   -0.887811
   14.O         3.800076   -0.651952   -0.851052
   15.H         4.364187   -0.984243   -1.579637
   16.H         4.341116   -0.623895   -0.034868
 <Jan01-2013> <09:21:51>  >>>> CORORT
 <Jan01-2013> <09:21:51>  >>>> FITINT
 <Jan01-2013> <09:21:54>  >>>> CLSMAT
 <Jan01-2013> <09:21:57>  >>>> ORTHON
 <Jan01-2013> <09:21:57>  WARNING: Virtuals almost lin. dependent
 <Jan01-2013> <09:21:57>  WARNING: Consider using keyword DEPENDENCY
 <Jan01-2013> <09:21:57>  >>>> GENPT
 <Jan01-2013> <09:21:57>  Acc.Num.Int.=   6.000
 <Jan01-2013> <09:21:57>  Reusing previous cell geometry for gradient smoothing.
 <Jan01-2013> <09:21:58>  Block Length= 128
 <Jan01-2013> <09:21:58>  >>>> PTBAS
 <Jan01-2013> <09:23:49>  >>>> CYCLE
 <Jan01-2013> <09:23:54>    1
 <Jan01-2013> <09:24:08>    2  ErrMat   0.00003275  MaxEl  0.00000768
 <Jan01-2013> <09:24:21>    3  ErrMat   0.00001739  MaxEl  0.00000390
 <Jan01-2013> <09:24:38>    4  ErrMat   0.00001164  MaxEl  0.00000202
 <Jan01-2013> <09:24:51>    5  ErrMat   0.00000723  MaxEl -0.00000162
 <Jan01-2013> <09:25:06>    6  ErrMat   0.00000236  MaxEl  0.00000050
 <Jan01-2013> <09:25:14>  SCF converged
 <Jan01-2013> <09:25:20>    7  ErrMat   0.00000070  MaxEl -0.00000008
 <Jan01-2013> <09:25:32>  >>>> TOTEN
 <Jan01-2013> <09:25:46>  >>>> POPAN
 <Jan01-2013> <09:25:47>  >>>> DEBYE
 <Jan01-2013> <09:25:47>  >>>> AMETS
 <Jan01-2013> <09:25:47>  >>>> ENGRAD
  Coordinates in Frequency Displacement 95
    Atom         X           Y           Z   (Angstrom)
    1.Hg        1.828764   -1.370428   -0.717176
    2.O        -2.165215   -0.474913   -1.104553
    3.H        -2.553126   -0.723386   -1.962990
    4.H        -2.936308   -0.320280   -0.300366
    5.O        -3.773153   -0.054456    0.684090
    6.H        -4.601104   -0.562110    0.759149
    7.H        -3.992419    0.882659    0.838105
    8.O         0.117257   -4.422599   -0.017259
    9.H        -0.120466   -4.770968    0.858774
   10.H        -0.092684   -5.132132   -0.648212
   11.O        -0.047963   -1.905648   -0.622612
   12.H        -0.062303   -2.902039   -0.384029
   13.H        -1.361770   -1.069669   -0.887811
   14.O         3.800076   -0.651952   -0.851052
   15.H         4.364187   -0.984243   -1.579637
   16.H         4.341116   -0.633895   -0.044868
 <Jan01-2013> <09:31:21>  >>>> CORORT
 <Jan01-2013> <09:31:21>  >>>> FITINT
 <Jan01-2013> <09:31:24>  >>>> CLSMAT
 <Jan01-2013> <09:31:28>  >>>> ORTHON
 <Jan01-2013> <09:31:28>  WARNING: Virtuals almost lin. dependent
 <Jan01-2013> <09:31:28>  WARNING: Consider using keyword DEPENDENCY
 <Jan01-2013> <09:31:29>  >>>> GENPT
 <Jan01-2013> <09:31:29>  Acc.Num.Int.=   6.000
 <Jan01-2013> <09:31:29>  Reusing previous cell geometry for gradient smoothing.
 <Jan01-2013> <09:31:29>  Block Length= 128
 <Jan01-2013> <09:31:30>  >>>> PTBAS
 <Jan01-2013> <09:33:48>  >>>> CYCLE
 <Jan01-2013> <09:33:53>    1
 <Jan01-2013> <09:34:10>    2  ErrMat   0.02099439  MaxEl -0.00481374
 <Jan01-2013> <09:34:24>    3  ErrMat   0.00999287  MaxEl -0.00214261
 <Jan01-2013> <09:34:38>    4  ErrMat   0.00884420  MaxEl -0.00176451
 <Jan01-2013> <09:34:53>    5  ErrMat   0.00447719  MaxEl  0.00105033
 <Jan01-2013> <09:35:07>    6  ErrMat   0.00079351  MaxEl  0.00009765
 <Jan01-2013> <09:35:22>    7  ErrMat   0.00017102  MaxEl -0.00001968
 <Jan01-2013> <09:35:36>    8  ErrMat   0.00004665  MaxEl -0.00000596
 <Jan01-2013> <09:35:50>    9  ErrMat   0.00001212  MaxEl  0.00000136
 <Jan01-2013> <09:36:04>   10  ErrMat   0.00000388  MaxEl -0.00000083
 <Jan01-2013> <09:36:11>  SCF converged
 <Jan01-2013> <09:36:17>   11  ErrMat   0.00000117  MaxEl  0.00000021
 <Jan01-2013> <09:36:26>  >>>> TOTEN
 <Jan01-2013> <09:36:36>  >>>> POPAN
 <Jan01-2013> <09:36:36>  >>>> DEBYE
 <Jan01-2013> <09:36:36>  >>>> AMETS
 <Jan01-2013> <09:36:37>  >>>> ENGRAD
  Coordinates in Frequency Displacement 96
    Atom         X           Y           Z   (Angstrom)
    1.Hg        1.828764   -1.370428   -0.717176
    2.O        -2.165215   -0.474913   -1.104553
    3.H        -2.553126   -0.723386   -1.962990
    4.H        -2.936308   -0.320280   -0.300366
    5.O        -3.773153   -0.054456    0.684090
    6.H        -4.601104   -0.562110    0.759149
    7.H        -3.992419    0.882659    0.838105
    8.O         0.117257   -4.422599   -0.017259
    9.H        -0.120466   -4.770968    0.858774
   10.H        -0.092684   -5.132132   -0.648212
   11.O        -0.047963   -1.905648   -0.622612
   12.H        -0.062303   -2.902039   -0.384029
   13.H        -1.361770   -1.069669   -0.887811
   14.O         3.800076   -0.651952   -0.851052
   15.H         4.364187   -0.984243   -1.579637
   16.H         4.341116   -0.633895   -0.024868
 <Jan01-2013> <09:38:20>  >>>> CORORT
 <Jan01-2013> <09:38:20>  >>>> FITINT
 <Jan01-2013> <09:38:22>  >>>> CLSMAT
 <Jan01-2013> <09:38:26>  >>>> ORTHON
 <Jan01-2013> <09:38:26>  WARNING: Virtuals almost lin. dependent
 <Jan01-2013> <09:38:26>  WARNING: Consider using keyword DEPENDENCY
 <Jan01-2013> <09:38:27>  >>>> GENPT
 <Jan01-2013> <09:38:27>  Acc.Num.Int.=   6.000
 <Jan01-2013> <09:38:27>  Reusing previous cell geometry for gradient smoothing.
 <Jan01-2013> <09:38:27>  Block Length= 128
 <Jan01-2013> <09:38:27>  >>>> PTBAS
 <Jan01-2013> <09:39:50>  >>>> CYCLE
 <Jan01-2013> <09:39:54>    1
 <Jan01-2013> <09:40:02>    2  ErrMat   0.00020570  MaxEl -0.00004416
 <Jan01-2013> <09:40:09>    3  ErrMat   0.00008889  MaxEl -0.00001721
 <Jan01-2013> <09:40:17>    4  ErrMat   0.00006186  MaxEl -0.00001262
 <Jan01-2013> <09:40:25>    5  ErrMat   0.00003413  MaxEl  0.00000804
 <Jan01-2013> <09:40:33>    6  ErrMat   0.00000884  MaxEl -0.00000108
 <Jan01-2013> <09:40:40>    7  ErrMat   0.00000159  MaxEl  0.00000014
 <Jan01-2013> <09:40:44>  SCF converged
 <Jan01-2013> <09:40:48>    8  ErrMat   0.00000070  MaxEl -0.00000008
 <Jan01-2013> <09:40:55>  >>>> TOTEN
 <Jan01-2013> <09:41:03>  >>>> POPAN
 <Jan01-2013> <09:41:03>  >>>> DEBYE
 <Jan01-2013> <09:41:03>  >>>> AMETS
 <Jan01-2013> <09:41:03>  >>>> ENGRAD
 <Jan01-2013> <09:42:29>  Force Constants computed
 <Jan01-2013> <09:42:29>  NORMAL TERMINATION
 <Jan01-2013> <09:42:30>  END
 <Jan01-2013> <09:42:30>  Total Bonding Energy:         -42.70001654 a.u.
