
 *******************************************************************************
 *                                                                             *
 *  -------------------------------------                                      *
 *   Amsterdam Density Functional  (ADF)         2013.01   April 2, 2013       *
 *  -------------------------------------                                      *
 *                                               Build 201304112106            *
 *                                                                             *
 *                                                                             *
 *                            =====================                            *
 *                            |                   |                            *
 *                            |     D I R A C     |                            *
 *                            |                   |                            *
 *                            =====================                            *
 *                                                                             *
 *                                                                             *
 *   Online information and documentation:  http://www.scm.com                 *
 *   E-mail:  support@scm.com   info@scm.com                                   *
 *                                                                             *
 *   Scientific publications using ADF results must be properly referenced     *
 *   See the User Manuals (or the web site) for recommended citations          *
 *   The terms and conditions of the End User License Agreement apply to       *
 *   the use of ADF, http://www.scm.com/Sales/LicAgreement.html                *
 *                                                                             *
 ****************************  x86_64_linux_intel  *****************************
 
 Licensed to: Prof. Cacier Hadad / University of Antioquia / Medellin / COLOMBIA
 SCM User ID: u15319
  
 DIRAC 2013.01  RunTime: Jan01-2013 00:00:10  Nodes: 1  Procs: 1

 Temporary files are created in /tmp/kid_0.YnVvB7

1
 HYDROGEN ATOM RELATIVISTIC, Point Nuc, A and c from libtc   
 N J RN H ZN XION ANUC CLIGHT
 5000    1100.00000000197.36710137  1.00000000  0.00000000    1.007825  0.1370360E+03
  PH   PHI     EPS        DEL        DELRVR
  0.30  0.30     2500.00  0.00001000  0.00001000
 IDIRC  NC1  NDEBU NPRIN  IPUN IRCOR IWCOR
   1   300     0     0     0     0     0
   XALPHA      XLATTER      RNUC
  0.70000000  0.00000000  0.00000000 Point Charge
   XN   XL   XJ      XE          XZ      XDELL
  1.0  0.0  0.5      -1.000       1.000     0.00000
 ICORP=  0  NPCL=  0  DEMP=0.00  PEPS=0.000000
 R(1)=  0.1000000E-08 D=  0.1005080E+01 RNUC=  0.0000000E+00
 converged at cycle   32  DENSITY AVERAGING    0.2400
  MAXIMUM ERROR IN R.V(R) IS   0.79874357E-05
 Q,EY,EV,EZ,ESUM,ETOT,RHO  0.100000E+01 -0.266614E+00 -0.619969E+00 -0.910779E+00 -0.203940E+00 -0.415998E+00  0.337036E-17


 DIRAC CALCULATION
1                    HYDROGEN ATOM RELATIVISTIC, Point Nuc, A and c from libtc


 EXCHANGE COEFFICIENT=  0.7000000           TAIL CORRECTION=  0.           NUCLEAR RADIUS=  0.000E+00
0                       ORBITAL    N    L    J     ELECTRONS     EIGENVALUE                DELTA OF EIGENV.

                          1S1/2  1.0  0.0  0.5     1.000       -0.2039397E+00                 0.2720093E-06


                                        NUCLEAR CHARGE=    1.000000
                            INTEGRAL OF CHARGE DENSITY=    1.000000
                           SUM OF THE ORBITAL ENERGIES=     -0.2039
                                          TOTAL ENERGY=     -0.4160
                                        KINETIC ENERGY=      0.4160
                             NUCLEAR ATTRACTION ENERGY=     -0.9108
                             ELECTRON REPULSION ENERGY=      0.2787
                                       EXCHANGE ENERGY=     -0.2000

 *******************************************************************************

                             D I R A C   E X I T
 NORMAL TERMINATION



 =================
 Timing Statistics
 =================
  
 Total Used :                     CPU=        0.09      System=        0.02     Elapsed=        0.23

 Calls  Section                     ( Mean, Percentage )
 ---------------------------------------------------------------------------------------------------
     2  ><      ................      0.00    0.00             0.00    0.05             0.00    0.00
     1  EXIT PROCEDURE .........      0.09  100.00             0.02   99.95             0.23  100.00


 Currently Open Files (EXIT00)
 ====================

 Unit    Access Format  Status   Type       Ident (file)
 -------------------------------------------------------
   3      SEQ    FORM   TRANSP  NORMAL      LOGFILE
                                          ( logfile )


 Buffered I/O statistics
 =======================
 Memory available:                     67108864
 Number of records fitting in memory:     16131
 Input : 100.0% of                            0  *4k bytes
 Output: 100.0% of                            0  *4k bytes
 Records from serial files evicted:           0
                    others evicted:           0
 Hash table lookups:          0 with          0 conflicts (100.00%)
(INPUT FILE)
Create H   file=/home/andyzapa/adf2013.01/atomicdata/ZORA/QZ4P/H
XC
GGA PBE
End
relativistic ZORA
Corepotentials t12.rel
End Input

 *******************************************************************************
 *                                                                             *
 *  -------------------------------------                                      *
 *   Amsterdam Density Functional  (ADF)         2013.01   April 2, 2013       *
 *  -------------------------------------                                      *
 *                                               Build 201304112215            *
 *                                                                             *
 *                                                                             *
 *                              =================                              *
 *                              |               |                              *
 *                              |     A D F     |                              *
 *                              |               |                              *
 *                              =================                              *
 *                                                                             *
 *                                                                             *
 *   Online information and documentation:  http://www.scm.com                 *
 *   E-mail:  support@scm.com   info@scm.com                                   *
 *                                                                             *
 *   Scientific publications using ADF results must be properly referenced     *
 *   See the User Manuals (or the web site) for recommended citations          *
 *   The terms and conditions of the End User License Agreement apply to       *
 *   the use of ADF, http://www.scm.com/Sales/LicAgreement.html                *
 *                                                                             *
 ********************  x86_64_linux_intel / platform_mpi  **********************
 
 Licensed to: Prof. Cacier Hadad / University of Antioquia / Medellin / COLOMBIA
 SCM User ID: u15319
  
 ADF 2013.01  RunTime: Jan01-2013 00:00:20  Nodes: 1  Procs: 1

 Temporary files are created in /tmp/kid_0.gE1bI2

 Hydrogen (QZ, all electron, 5S 2P 2D)



 ===========================
 A T T A C H E D   F I L E S
 ===========================
  
 CREATE - Data File:    /home/andyzapa/adf2013.01/atomicdata/ZORA/QZ4P/H
                        Hydrogen (QZ, all electron, 5S 2P 2D)
 Core Potentials:
         file : t12.rel



 ===============================
 M O D E L   P A R A M E T E R S
 ===============================
  
 DENSITY FUNCTIONAL POTENTIAL (scf)
    LDA:                               PW92                                    == Not Default ==
    Gradient Corrections:              PBEc PBEx                               == Not Default ==

 SPIN  (restricted / unrestr.)
    Molecule:                          Restricted                               

 OTHER ASPECTS
    Relativistic Corrections:          scalar (ZORA,SAPA)                      == Not Default ==

    Nuclear Charge Density Model:      Point Charge Nuclei                                                                                                                                                                                     
    Core Treatment:                    Frozen Orbital(s)                        

    Hyperfine or Zeeman Interaction:   ---                                      



 =====================================
 S Y M M E T R Y ,   E L E C T R O N S
 =====================================
  
 Symmetry: ATOM

 Irreducible Representations, including subspecies
 -------------------------------------------------
 S
 P:x  P:y  P:z
 D:z2  D:x2-y2  D:xy  D:xz  D:yz
 F:z3  F:z  F:xyz  F:z2x  F:z2y  F:x  F:y


 Configuration of Valence Electrons
 ==================================

          Occupation Numbers
          -------------------------------------------------
 S        1
 P        0
 D        0
 F        0
          -------------------------------------------------

 Total:   1

 Net Charge: 0 (Nuclei minus Electrons)

 Preset values for MO occupations will be applied through SCF cycle no. 1000000
 Thereafter, the program will assign electrons to MOs that are spatially
 similar to the occupied MOs in a "reference" cycle ("KeepOrbitals").
 The reference cycle is always the PREVIOUS cycle: it will evolve with
 the SCF procedure.



 ================================
 (Slater-type)  F U N C T I O N S  ***  (Basis and Fit)  ***
 ================================
  

 Atom Type    1  (H)
 ==============

 Valence Basis Sets:   9
 -----------------------
   1 S    3.300000
   1 S    2.000000
   1 S    1.400000
   1 S    1.000000
   1 S    0.710000
   2 P    2.000000
   2 P    1.000000
   3 D    2.500000
   3 D    1.500000

 Charge Fitting Sets (for the computation of the Coulomb Potential):  22
 -----------------------------------------------------------------------
   1 S    6.600000
   1 S    4.620000
   1 S    3.230000
   1 S    2.260000
   1 S    1.580000
   1 S    1.100000
   1 S    0.770000
   2 S    1.000000
   2 P    5.300000
   2 P    3.870000
   2 P    2.820000
   2 P    2.060000
   2 P    1.500000
   3 D    5.800000
   3 D    4.070000
   3 D    2.850000
   3 D    2.000000
   4 F    4.500000
   4 F    3.350000
   4 F    2.500000
   5 G    5.000000
   5 G    3.000000


 BAS: List of all Elementary Cartesian Basis Functions
 =====================================================

 The numbering in the list below (to the right of the function characteristics) is referred
 to in print-outs of MO eigenvectors and Mulliken populations in the BAS representation
 (as contrasted to the SFO representation).

 Notes:
 1. The functions are characterized by a polynomial prefactor (powers of x,y,z and r) and
    an exponential decay factor alpha.
 2. Since the basis sets are specific for an atom TYPE, the individual functions occur on
    all atoms of that type.
 3. The word 'Core' in the left margin signals that it is a Core Function (CF) : not a
    degree of freedom in the valence set, but only used to ensure orthogonalization of
    the other valence basis functions on the frozen Core Orbitals.


 (power of) X  Y  Z  R     Alpha  on Atom
            ==========     =====     ==========

 H                                    1
                                  ---------------------------------------------------------------------------
            0  0  0  0     3.300      1
            0  0  0  0     2.000      2
            0  0  0  0     1.400      3
            0  0  0  0     1.000      4
            0  0  0  0     0.710      5
            1  0  0  0     2.000      6
            0  1  0  0     2.000      7
            0  0  1  0     2.000      8
            1  0  0  0     1.000      9
            0  1  0  0     1.000     10
            0  0  1  0     1.000     11
            2  0  0  0     2.500     12
            1  1  0  0     2.500     13
            1  0  1  0     2.500     14
            0  2  0  0     2.500     15
            0  1  1  0     2.500     16
            0  0  2  0     2.500     17
            2  0  0  0     1.500     18
            1  1  0  0     1.500     19
            1  0  1  0     1.500     20
            0  2  0  0     1.500     21
            0  1  1  0     1.500     22
            0  0  2  0     1.500     23

 Total number of charge fitting functions (nprimf)       107
 Total number of Cartesian basis functions (naos)         23
 Total number of Cartesian core functions  (ncos)          0



 BAS: List of all Elementary Cartesian Basis Functions
 =====================================================

 The numbering in the list below (to the right of the function characteristics) is referred
 to in print-outs of MO eigenvectors and Mulliken populations in the BAS representation
 (as contrasted to the SFO representation).

 Notes:
 1. The functions are characterized by a polynomial prefactor (powers of x,y,z and r) and
    an exponential decay factor alpha.
 2. Since the basis sets are specific for an atom TYPE, the individual functions occur on
    all atoms of that type.
 3. The word 'Core' in the left margin signals that it is a Core Function (CF) : not a
    degree of freedom in the valence set, but only used to ensure orthogonalization of
    the other valence basis functions on the frozen Core Orbitals.


 (power of) X  Y  Z  R     Alpha  on Atom
            ==========     =====     ==========

 H                                    1
                                  ---------------------------------------------------------------------------
            0  0  0  0     3.300      1
            0  0  0  0     2.000      2
            0  0  0  0     1.400      3
            0  0  0  0     1.000      4
            0  0  0  0     0.710      5
            1  0  0  0     2.000      6
            0  1  0  0     2.000      7
            0  0  1  0     2.000      8
            1  0  0  0     1.000      9
            0  1  0  0     1.000     10
            0  0  1  0     1.000     11
            2  0  0  0     2.500     12
            1  1  0  0     2.500     13
            1  0  1  0     2.500     14
            0  2  0  0     2.500     15
            0  1  1  0     2.500     16
            0  0  2  0     2.500     17
            2  0  0  0     1.500     18
            1  1  0  0     1.500     19
            1  0  1  0     1.500     20
            0  2  0  0     1.500     21
            0  1  1  0     1.500     22
            0  0  2  0     1.500     23
1
 ***************************************************************************************************



                                              ***********************
                                              *  T E C H N I C A L  *
                                              ***********************
  



 =============================================================
 P A R A L L E L I Z A T I O N  and  V E C T O R I Z A T I O N
 =============================================================
  
 Nr of parallel processes:                                1
 Maximum vector length in NumInt loops:                 128



 ===============
 I O  vs.  C P U  ***  (store numerical data on disk or recalculate)  ***
 ===============
  
 Basis functions:   recalculate when needed
 Fit functions:     recalculate when needed

 IO buffersize (Mb):                                     64.000000



 =====================
 S C F   U P D A T E S
 =====================
  
 Max. nr. of cycles:                               100
 Convergence criterion:                              0.0000000100
   secondary criterion:                              0.0000000100

 Mix parameter (when DIIS does not apply):           0.2000000000
 Special mix parameter for the first cycle:          1.0000000000


 DIIS (Direct Inversion in Iteration Space)
    Replace damping when SCF Error is below:         0.5000000000
    Apply anyway after SCF cycle:
                                                     5
    (Max.) nr. of expansion vectors:                10

    Upperbound on expansion coefficients:            5.0000000000
    (when exceeded, IterationSpace is re-built)
    2nd Upperbound on coefficients:                 25.0000000000
    (when exceeded, simple damping will be used)
 Automatic ElectronSmearing (in case of problematic SCF convergence) disabled



 =================
 P R E C I S I O N  ***  (General: NumInt, NeglectFunctionTails, ...)  ***
 =================
  

 NumInt:           Target precision:                10.0000000000
 -------           Initial precision:               10.0000000000
                   Min. precision (optimization):   10.0000000000

 Neglect Functions:          Basis functions:        0.1000000000E-11
 ------------------          Fit functions:          0.1000000000E-11



 ===========================
 L I N E A R   S C A L I N G
 ===========================
  

 Cut-off radii density fit:                        0.1000000000E-13
 Overlap cut-off criterion AO matrix elements:     0.1000000000E-11
 Cut-offs for Coulomb potential and fitted density:0.1000000000E-13
 Cut-off criterion for Coulomb multipole terms:    0.1000000000E-13
 Progressive Convergence parameter:                 0.000000000    
1
 ***************************************************************************************************



                                            ***************************
                                            *  C O M P U T A T I O N  *
                                            ***************************
  

 Number of elements of the density matrix on this node (used, total):       276       276



 ====================================================
 Numerical Integration : Voronoi Polyhedra (Te Velde)
 ====================================================
  
 General Accuracy Parameter :                         10.00

 Symmetry used in the points section:  ATOM  


 Summary of the Symmetry Unique Points:
 --------------------------------------
    Nr. of used Symmetry Operators                     1

    Points in the Atomic Spheres                      44
    Points in the Atomic Polyhedra                     0
    Points in the Outer Region                         0
    ----------------------------------------------------
    Total                                             44

    Sum of Weights                                 33854.777883

 Total nr. of points:         44
 Nr. of blocks:                1
 Block length:                44
 Nr. of dummy points:          0


 Test of Precision of the Numerical Integration Grid
 ===================================================

 Integral of the Total Core Density:                   0.00000000000000



 =====
 S C F
 =====
  

 CYCLE    1
 orbitals (Q,E):
 ---------------
 S :1...5            ( 1.00    -0.5000)  ( 0.00    -0.1102)  ( 0.00     0.2912)  ( 0.00     2.1458)
                     ( 0.00    15.1140)
 P :1...2            ( 0.00    -0.0467)  ( 0.00     1.6698)
 D :1...2            ( 0.00     0.4090)  ( 0.00     3.3827)

 CYCLE    2
 d-Pmat  mean:  0.40E-01
 imax=      4: -0.73E+00
 orbitals (Q,E):
 ---------------
 S :1...2            ( 1.00    -0.2213)  ( 0.00     0.0617)
 P :1...1            ( 0.00     0.1820)
 D :1...1            ( 0.00     0.6395)

 CYCLE    3
 d-Pmat  mean:  0.48E-02
 imax=      4:  0.66E-01
 orbitals (Q,E):
 ---------------
 S :1...2            ( 1.00    -0.2392)  ( 0.00     0.0523)
 P :1...1            ( 0.00     0.1713)
 D :1...1            ( 0.00     0.6290)

 CYCLE    4
 d-Pmat  mean:  0.47E-03
 imax=      4: -0.74E-02
 orbitals (Q,E):
 ---------------
 S :1...2            ( 1.00    -0.2386)  ( 0.00     0.0522)
 P :1...1            ( 0.00     0.1716)
 D :1...1            ( 0.00     0.6293)

 CYCLE    5
 d-Pmat  mean:  0.13E-04
 imax=      4:  0.20E-03
 orbitals (Q,E):
 ---------------
 S :1...2            ( 1.00    -0.2386)  ( 0.00     0.0522)
 P :1...1            ( 0.00     0.1716)
 D :1...1            ( 0.00     0.6293)

 CYCLE    6
 d-Pmat  mean:  0.14E-06
 imax=      4:  0.26E-05
 orbitals (Q,E):
 ---------------
 S :1...2            ( 1.00    -0.2386)  ( 0.00     0.0522)
 P :1...1            ( 0.00     0.1716)
 D :1...1            ( 0.00     0.6293)

 CYCLE    7
 d-Pmat  mean:  0.24E-08
 imax=      4:  0.39E-07
 orbitals (Q,E):
 ---------------
 S :1...2            ( 1.00    -0.2386)  ( 0.00     0.0522)
 P :1...1            ( 0.00     0.1716)
 D :1...1            ( 0.00     0.6293)

 SCF CONVERGED

 CYCLE    8
1
 ***************************************************************************************************



                                                *******************
                                                *  R E S U L T S  *
                                                *******************
  
 *** Setting up for NEW gradients in focky
 *** Using FIT density in focky

 Scaled ZORA Orbital Energies, per Irrep and Spin:
 =================================================
                        Occup              E (au)              E (eV)       Diff (eV) with prev. cycle
                        -----      --------------------        ------       --------------------------
 S
               1        1.000     -0.23860414448778E+00        -6.493              -2.14E-10
               2        0.000      0.52240780773135E-01         1.422
               3        0.000      0.50128711414798E+00        13.641
               4        0.000      0.23892611828176E+01        65.015
               5        0.000      0.15295018626305E+02       416.199
 P
               1        0.000      0.17156247999750E+00         4.668
               2        0.000      0.19364620405874E+01        52.694
 D
               1        0.000      0.62928666110106E+00        17.124
               2        0.000      0.36544214463356E+01        99.442


 Partially Occupied:
               1 S                -0.23860414448778E+00
  
 LUMO :        2 S                 0.52240780773135E-01
  


 Orbital Energies, all Irreps
 ========================================

 Irrep        no.  (spin)   Occup              E (au)                E (eV)
 ---------------------------------------------------------------------------
 S             1             1.00       -0.23860414448778E+00        -6.4927
 S             2             0.00        0.52240780773135E-01         1.4215
 P             1             0.00        0.17156247999750E+00         4.6685
 S             3             0.00        0.50128711414798E+00        13.6407
 D             1             0.00        0.62928666110106E+00        17.1238
 P             2             0.00        0.19364620405874E+01        52.6938
 S             4             0.00        0.23892611828176E+01        65.0151
 D             2             0.00        0.36544214463356E+01        99.4419
 S             5             0.00        0.15295018626305E+02       416.1986


 All Electron Calculation, thus no Orbital Energies of the Core Orbitals are calculated



 =======================================
 M U L L I K E N   P O P U L A T I O N S
 =======================================
  
 The survey below gives for each atom:
 a) the total charge (Z minus electrons)
 b) the net spin polarization (nr of electrons spin-A minus spin-B)
 c) for each spin the atomic electron valence density (integrated) per L-value.

 Atom              Charge    Spin density          S         P         D         F
 ----              ------    ------------       ------    ------    ------    ------
 1 H               0.0000                       1.0000    0.0000    0.0000    0.0000

 Populations of individual BAS functions
 ----------------------------------------
 1 H           -0.0037  0.0405  0.0399  0.5670  0.3563  0.0000  0.0000  0.0000  0.0000  0.0000
                0.0000  0.0000  0.0000  0.0000  0.0000  0.0000  0.0000  0.0000  0.0000  0.0000
                0.0000  0.0000  0.0000

 Gross Charges per Atom (Z minus electrons)
 ==========================================
             0.0000
 Net Total:  0.00000000


 Atom-Atom Population Matrix (off-diagonal elements not doubled)
 ===============================================================

     1 :     1.0000



 =============
 Dipole Moment  ***  (Debye)  ***
 =============
  
 Vector   :         0.00000000      0.00000000      0.00000000
 Magnitude:         0.00000000

 This molecular dipole moment is calculated with analytic integration



 =========================================
 Quadrupole Moment (Buckingham convention)  ***  (a.u.)  ***
 =========================================
  
      quad-xx        quad-xy        quad-xz        quad-yy        quad-yz        quad-zz
      0.00000000     0.00000000     0.00000000     0.00000000     0.00000000     0.00000000

 This molecular quadrupole moment is calculated with analytic integration



 ===============================================================================
 Electrostatic potential at the Nuclei due to valence electrons and other nuclei
 ===============================================================================
  
         Atom                  Potential
         ----                  ---------
     1)   H                   0.94463948
 
 
 ========================
 No memory problems found
 ========================
 
 Maximum number of active allocate calls:         378
 
 *******************************************************************************

                             A D F   E X I T
 NORMAL TERMINATION



 =================
 Timing Statistics
 =================
  
 Total Used :                     CPU=        0.18      System=        0.07     Elapsed=        1.22

 Calls  Section                     ( Mean, Percentage )
 ---------------------------------------------------------------------------------------------------
     3  ><      ................      0.00    0.80             0.00    0.03             0.02    5.09
     1  INIT    ................      0.01    7.70             0.00    0.00             0.13   11.04
     1  GEOMET  ................      0.00    1.71             0.04   59.38             0.29   23.69
     1  INPUTA  ................      0.00    1.26             0.00    0.00             0.00    0.26
     1  MAINSY  ................      0.01    4.75             0.00    0.49             0.04    3.54
     1  SYMFIT  ................      0.00    0.19             0.00    0.00             0.00    0.03
     1  CORORT  ................      0.00    0.00             0.00    0.71             0.01    0.50
     1  SYMORB  ................      0.00    0.00             0.00    1.38             0.00    0.08
     1  FITINT  ................      0.00    2.08             0.00    2.26             0.03    2.36
     1  CLSMAT  ................      0.00    0.10             0.00    0.47             0.01    0.45
     1  ORTHON  ................      0.00    0.59             0.00    1.33             0.02    1.27
     1  GENPT   ................      0.01    3.48             0.00    2.56             0.04    3.57
     1  PTBAS   ................      0.00    1.42             0.00    0.00             0.01    0.70
     8  FOCKY   ................      0.01   44.51             0.00   17.43             0.03   16.83
     8  FOCKTR  ................      0.00    1.40             0.00    0.06             0.00    0.21
     8  FOCKNM  ................      0.00    0.18             0.00    0.00             0.00    0.03
     8  SDIIS   ................      0.00    2.09             0.00    1.23             0.01    9.46
     8  EMERGE  ................      0.00   10.28             0.00    8.67             0.01    7.14
     1  COREPS  ................      0.00    2.00             0.00    0.00             0.01    0.59
     1  POPAN   ................      0.00    1.56             0.00    0.00             0.03    2.52
     1  DEBYE   ................      0.00    0.43             0.00    0.00             0.10    7.83
     1  QMPOT   ................      0.00    0.19             0.00    3.68             0.00    0.23
     1  EXIT PROCEDURE .........      0.02   13.27             0.00    0.33             0.03    2.59


 Currently Open Files (EXIT00)
 ====================

 Unit    Access Format  Status   Type       Ident (file)
 -------------------------------------------------------
   3      SEQ    FORM   TRANSP  NORMAL      LOGFILE
                                          ( logfile )


 Buffered I/O statistics
 =======================
 Memory available:                     67108864
 Number of records fitting in memory:     16131
 Input :   1.3% of                         3604  *4k bytes
 Output:  10.6% of                         1855  *4k bytes
 Records from serial files evicted:           0
                    others evicted:           0
 Hash table lookups:      14887 with          0 conflicts (  0.00%)

 ***************************************************************************************************
 (LOGFILE)
 <Jan01-2013> <00:00:10>  DIRAC 2013.01  RunTime: Jan01-2013 00:00:10  Nodes: 1  Procs: 1
 <Jan01-2013> <00:00:10>  NORMAL TERMINATION
 <Jan01-2013> <00:00:10>  END
 <Jan01-2013> <00:00:20>  ADF 2013.01  RunTime: Jan01-2013 00:00:20  Nodes: 1  Procs: 1
 <Jan01-2013> <00:00:20>  Hydrogen (QZ, all electron, 5S 2P 2D)
 <Jan01-2013> <00:00:20>  RunType   : CREATE
 <Jan01-2013> <00:00:21>  Net Charge: 0 (Nuclei minus Electrons)
 <Jan01-2013> <00:00:21>  Symmetry  : ATOM
  Coordinates
    Atom         X           Y           Z   (Angstrom)
    1.H         0.000000    0.000000    0.000000
 <Jan01-2013> <00:00:21>  >>>> CORORT
 <Jan01-2013> <00:00:21>  >>>> FITINT
 <Jan01-2013> <00:00:21>  >>>> CLSMAT
 <Jan01-2013> <00:00:21>  >>>> ORTHON
 <Jan01-2013> <00:00:21>  >>>> GENPT
 <Jan01-2013> <00:00:21>  Acc.Num.Int.=  10.000
 <Jan01-2013> <00:00:21>  Block Length=  44
 <Jan01-2013> <00:00:21>  >>>> PTBAS
 <Jan01-2013> <00:00:21>  >>>> CYCLE
 <Jan01-2013> <00:00:21>    1
 <Jan01-2013> <00:00:21>    2  ErrMat   0.03803841  MaxEl  0.03078708
 <Jan01-2013> <00:00:21>    3  ErrMat   0.00916622  MaxEl -0.00901560
 <Jan01-2013> <00:00:21>    4  ErrMat   0.00035667  MaxEl  0.00031421
 <Jan01-2013> <00:00:21>    5  ErrMat   0.00000962  MaxEl -0.00000892
 <Jan01-2013> <00:00:21>    6  ErrMat   0.00000013  MaxEl  0.00000008
 <Jan01-2013> <00:00:21>    7  ErrMat   0.00000000  MaxEl  0.00000000
 <Jan01-2013> <00:00:21>  SCF converged
 <Jan01-2013> <00:00:21>    8  ErrMat   0.00000000  MaxEl  0.00000000
 <Jan01-2013> <00:00:21>   Solutions with partially occupied orbitals may not be
 <Jan01-2013> <00:00:21>   lowest in energy. You might consider lowering the
 <Jan01-2013> <00:00:21>   symmetry in the input and explicitly specifying integer
 <Jan01-2013> <00:00:21>   occupations. In that case always check that you obtain
 <Jan01-2013> <00:00:21>   an aufbau solution.
 <Jan01-2013> <00:00:21>  >>>> POPAN
 <Jan01-2013> <00:00:21>  >>>> DEBYE
 <Jan01-2013> <00:00:21>  NORMAL TERMINATION
 <Jan01-2013> <00:00:21>  END

 *******************************************************************************
 *                                                                             *
 *  -------------------------------------                                      *
 *   Amsterdam Density Functional  (ADF)         2013.01   April 2, 2013       *
 *  -------------------------------------                                      *
 *                                               Build 201304112106            *
 *                                                                             *
 *                                                                             *
 *                            =====================                            *
 *                            |                   |                            *
 *                            |     D I R A C     |                            *
 *                            |                   |                            *
 *                            =====================                            *
 *                                                                             *
 *                                                                             *
 *   Online information and documentation:  http://www.scm.com                 *
 *   E-mail:  support@scm.com   info@scm.com                                   *
 *                                                                             *
 *   Scientific publications using ADF results must be properly referenced     *
 *   See the User Manuals (or the web site) for recommended citations          *
 *   The terms and conditions of the End User License Agreement apply to       *
 *   the use of ADF, http://www.scm.com/Sales/LicAgreement.html                *
 *                                                                             *
 ****************************  x86_64_linux_intel  *****************************
 
 Licensed to: Prof. Cacier Hadad / University of Antioquia / Medellin / COLOMBIA
 SCM User ID: u15319
  
 DIRAC 2013.01  RunTime: Jan01-2013 00:00:32  Nodes: 1  Procs: 1

 Temporary files are created in /tmp/kid_0.Pv62lP

1
 OXYGEN ATOM all electron RELATIVISTIC, Point Nuc, A and c fr
 N J RN H ZN XION ANUC CLIGHT
 5000    4100.00000000197.36710137  8.00000000  0.00000000   15.994914  0.1370360E+03
  PH   PHI     EPS        DEL        DELRVR
  0.30  0.30     2500.00  0.00001000  0.00001000
 IDIRC  NC1  NDEBU NPRIN  IPUN IRCOR IWCOR
   1   300     0     0     0     0     0
   XALPHA      XLATTER      RNUC
  0.70000000  0.00000000  0.00000000 Point Charge
   XN   XL   XJ      XE          XZ      XDELL
  1.0  0.0  0.5      -5.000       2.000     0.00000
  2.0  0.0  0.5      -1.000       2.000     0.00000
  2.0  1.0  0.5      -1.000       2.000     0.00000
  2.0  1.0  1.5      -1.000       2.000     0.00000
 ICORP=  0  NPCL=  0  DEMP=0.00  PEPS=0.000000
 R(1)=  0.1000000E-08 D=  0.1005080E+01 RNUC=  0.0000000E+00
 converged at cycle   28  DENSITY AVERAGING    0.2400
  MAXIMUM ERROR IN R.V(R) IS   0.81125670E-05
 Q,EY,EV,EZ,ESUM,ETOT,RHO  0.800000E+01 -0.101247E+02 -0.114961E+03 -0.177573E+03 -0.405053E+02 -0.743427E+02  0.414766E-14


 DIRAC CALCULATION
1                    OXYGEN ATOM all electron RELATIVISTIC, Point Nuc, A and c from libtc


 EXCHANGE COEFFICIENT=  0.7000000           TAIL CORRECTION=  0.           NUCLEAR RADIUS=  0.000E+00
0                       ORBITAL    N    L    J     ELECTRONS     EIGENVALUE                DELTA OF EIGENV.

                          1S1/2  1.0  0.0  0.5     2.000       -0.1880014E+02                 0.7264359E-06
                          2S1/2  2.0  0.0  0.5     2.000       -0.8412236E+00                 0.5932752E-05
                          2P1/2  2.0  1.0  0.5     2.000       -0.3063203E+00                 0.5998471E-05
                          2P3/2  2.0  1.0  1.5     2.000       -0.3049609E+00                 0.5986971E-05


                                        NUCLEAR CHARGE=    8.000000
                            INTEGRAL OF CHARGE DENSITY=    8.000000
                           SUM OF THE ORBITAL ENERGIES=    -40.5053
                                          TOTAL ENERGY=    -74.3427
                                        KINETIC ENERGY=     74.4552
                             NUCLEAR ATTRACTION ENERGY=   -177.5730
                             ELECTRON REPULSION ENERGY=     36.3686
                                       EXCHANGE ENERGY=     -7.5935

 *******************************************************************************

                             D I R A C   E X I T
 NORMAL TERMINATION



 =================
 Timing Statistics
 =================
  
 Total Used :                     CPU=        0.13      System=        0.02     Elapsed=        0.28

 Calls  Section                     ( Mean, Percentage )
 ---------------------------------------------------------------------------------------------------
     2  ><      ................      0.00    0.01             0.00    0.00             0.00    0.00
     1  EXIT PROCEDURE .........      0.13   99.99             0.02  100.00             0.28  100.00


 Currently Open Files (EXIT00)
 ====================

 Unit    Access Format  Status   Type       Ident (file)
 -------------------------------------------------------
   3      SEQ    FORM   TRANSP  NORMAL      LOGFILE
                                          ( logfile )


 Buffered I/O statistics
 =======================
 Memory available:                     67108864
 Number of records fitting in memory:     16131
 Input : 100.0% of                            0  *4k bytes
 Output: 100.0% of                            0  *4k bytes
 Records from serial files evicted:           0
                    others evicted:           0
 Hash table lookups:          0 with          0 conflicts (100.00%)
(INPUT FILE)
Create O   file=/home/andyzapa/adf2013.01/atomicdata/ZORA/QZ4P/O
XC
GGA PBE
End
relativistic ZORA
Corepotentials t12.rel
End Input

 *******************************************************************************
 *                                                                             *
 *  -------------------------------------                                      *
 *   Amsterdam Density Functional  (ADF)         2013.01   April 2, 2013       *
 *  -------------------------------------                                      *
 *                                               Build 201304112215            *
 *                                                                             *
 *                                                                             *
 *                              =================                              *
 *                              |               |                              *
 *                              |     A D F     |                              *
 *                              |               |                              *
 *                              =================                              *
 *                                                                             *
 *                                                                             *
 *   Online information and documentation:  http://www.scm.com                 *
 *   E-mail:  support@scm.com   info@scm.com                                   *
 *                                                                             *
 *   Scientific publications using ADF results must be properly referenced     *
 *   See the User Manuals (or the web site) for recommended citations          *
 *   The terms and conditions of the End User License Agreement apply to       *
 *   the use of ADF, http://www.scm.com/Sales/LicAgreement.html                *
 *                                                                             *
 ********************  x86_64_linux_intel / platform_mpi  **********************
 
 Licensed to: Prof. Cacier Hadad / University of Antioquia / Medellin / COLOMBIA
 SCM User ID: u15319
  
 ADF 2013.01  RunTime: Jan01-2013 00:00:42  Nodes: 1  Procs: 1

 Temporary files are created in /tmp/kid_0.wsaIwu

 Oxygen (QZ, all electron, 8S 4P 2D 2F)



 ===========================
 A T T A C H E D   F I L E S
 ===========================
  
 CREATE - Data File:    /home/andyzapa/adf2013.01/atomicdata/ZORA/QZ4P/O
                        Oxygen (QZ, all electron, 8S 4P 2D 2F)
 Core Potentials:
         file : t12.rel



 ===============================
 M O D E L   P A R A M E T E R S
 ===============================
  
 DENSITY FUNCTIONAL POTENTIAL (scf)
    LDA:                               PW92                                    == Not Default ==
    Gradient Corrections:              PBEc PBEx                               == Not Default ==

 SPIN  (restricted / unrestr.)
    Molecule:                          Restricted                               

 OTHER ASPECTS
    Relativistic Corrections:          scalar (ZORA,SAPA)                      == Not Default ==

    Nuclear Charge Density Model:      Point Charge Nuclei                                                                                                                                                                                     
    Core Treatment:                    Frozen Orbital(s)                        

    Hyperfine or Zeeman Interaction:   ---                                      



 =====================================
 S Y M M E T R Y ,   E L E C T R O N S
 =====================================
  
 Symmetry: ATOM

 Irreducible Representations, including subspecies
 -------------------------------------------------
 S
 P:x  P:y  P:z
 D:z2  D:x2-y2  D:xy  D:xz  D:yz
 F:z3  F:z  F:xyz  F:z2x  F:z2y  F:x  F:y


 Configuration of Valence Electrons
 ==================================

          Occupation Numbers
          -------------------------------------------------
 S        2*2
 P        4
 D        0
 F        0
          -------------------------------------------------

 Total:   8

 Net Charge: 0 (Nuclei minus Electrons)

 Preset values for MO occupations will be applied through SCF cycle no. 1000000
 Thereafter, the program will assign electrons to MOs that are spatially
 similar to the occupied MOs in a "reference" cycle ("KeepOrbitals").
 The reference cycle is always the PREVIOUS cycle: it will evolve with
 the SCF procedure.



 ================================
 (Slater-type)  F U N C T I O N S  ***  (Basis and Fit)  ***
 ================================
  

 Atom Type    1  (O)
 ==============

 Valence Basis Sets:  16
 -----------------------
   1 S   14.800000
   1 S    8.750000
   1 S    6.650000
   2 S    7.100000
   2 S    3.200000
   2 S    2.050000
   2 S    1.500000
   2 S    0.750000
   2 P    5.700000
   2 P    3.050000
   2 P    1.650000
   2 P    1.000000
   3 D    2.500000
   3 D    1.500000
   4 F    4.000000
   4 F    2.000000

 Charge Fitting Sets (for the computation of the Coulomb Potential):  37
 -----------------------------------------------------------------------
   1 S   29.600000
   1 S   22.760000
   1 S   17.500000
   1 S   11.580000
   2 S   14.160000
   2 S   10.290000
   2 S    7.480000
   2 S    5.430000
   3 S    5.780000
   3 S    4.410000
   3 S    3.370000
   3 S    2.570000
   3 S    1.960000
   3 S    1.500000
   2 P   14.450000
   2 P    9.770000
   2 P    6.610000
   3 P    6.560000
   3 P    4.710000
   3 P    3.390000
   3 P    2.430000
   3 P    1.750000
   3 D   11.400000
   3 D    7.640000
   3 D    5.120000
   4 D    4.550000
   4 D    3.200000
   4 D    2.250000
   4 F   12.750000
   4 F    8.120000
   4 F    5.170000
   5 F    4.130000
   5 F    2.750000
   5 G    9.700000
   5 G    6.560000
   5 G    4.440000
   5 G    3.000000


 BAS: List of all Elementary Cartesian Basis Functions
 =====================================================

 The numbering in the list below (to the right of the function characteristics) is referred
 to in print-outs of MO eigenvectors and Mulliken populations in the BAS representation
 (as contrasted to the SFO representation).

 Notes:
 1. The functions are characterized by a polynomial prefactor (powers of x,y,z and r) and
    an exponential decay factor alpha.
 2. Since the basis sets are specific for an atom TYPE, the individual functions occur on
    all atoms of that type.
 3. The word 'Core' in the left margin signals that it is a Core Function (CF) : not a
    degree of freedom in the valence set, but only used to ensure orthogonalization of
    the other valence basis functions on the frozen Core Orbitals.


 (power of) X  Y  Z  R     Alpha  on Atom
            ==========     =====     ==========

 O                                    1
                                  ---------------------------------------------------------------------------
            0  0  0  0    14.800      1
            0  0  0  0     8.750      2
            0  0  0  0     6.650      3
            0  0  0  1     7.100      4
            0  0  0  1     3.200      5
            0  0  0  1     2.050      6
            0  0  0  1     1.500      7
            0  0  0  1     0.750      8
            1  0  0  0     5.700      9
            0  1  0  0     5.700     10
            0  0  1  0     5.700     11
            1  0  0  0     3.050     12
            0  1  0  0     3.050     13
            0  0  1  0     3.050     14
            1  0  0  0     1.650     15
            0  1  0  0     1.650     16
            0  0  1  0     1.650     17
            1  0  0  0     1.000     18
            0  1  0  0     1.000     19
            0  0  1  0     1.000     20
            2  0  0  0     2.500     21
            1  1  0  0     2.500     22
            1  0  1  0     2.500     23
            0  2  0  0     2.500     24
            0  1  1  0     2.500     25
            0  0  2  0     2.500     26
            2  0  0  0     1.500     27
            1  1  0  0     1.500     28
            1  0  1  0     1.500     29
            0  2  0  0     1.500     30
            0  1  1  0     1.500     31
            0  0  2  0     1.500     32
            3  0  0  0     4.000     33
            2  1  0  0     4.000     34
            2  0  1  0     4.000     35
            1  2  0  0     4.000     36
            1  1  1  0     4.000     37
            1  0  2  0     4.000     38
            0  3  0  0     4.000     39
            0  2  1  0     4.000     40
            0  1  2  0     4.000     41
            0  0  3  0     4.000     42
            3  0  0  0     2.000     43
            2  1  0  0     2.000     44
            2  0  1  0     2.000     45
            1  2  0  0     2.000     46
            1  1  1  0     2.000     47
            1  0  2  0     2.000     48
            0  3  0  0     2.000     49
            0  2  1  0     2.000     50
            0  1  2  0     2.000     51
            0  0  3  0     2.000     52

 Total number of charge fitting functions (nprimf)       184
 Total number of Cartesian basis functions (naos)         52
 Total number of Cartesian core functions  (ncos)          0



 BAS: List of all Elementary Cartesian Basis Functions
 =====================================================

 The numbering in the list below (to the right of the function characteristics) is referred
 to in print-outs of MO eigenvectors and Mulliken populations in the BAS representation
 (as contrasted to the SFO representation).

 Notes:
 1. The functions are characterized by a polynomial prefactor (powers of x,y,z and r) and
    an exponential decay factor alpha.
 2. Since the basis sets are specific for an atom TYPE, the individual functions occur on
    all atoms of that type.
 3. The word 'Core' in the left margin signals that it is a Core Function (CF) : not a
    degree of freedom in the valence set, but only used to ensure orthogonalization of
    the other valence basis functions on the frozen Core Orbitals.


 (power of) X  Y  Z  R     Alpha  on Atom
            ==========     =====     ==========

 O                                    1
                                  ---------------------------------------------------------------------------
            0  0  0  0    14.800      1
            0  0  0  0     8.750      2
            0  0  0  0     6.650      3
            0  0  0  1     7.100      4
            0  0  0  1     3.200      5
            0  0  0  1     2.050      6
            0  0  0  1     1.500      7
            0  0  0  1     0.750      8
            1  0  0  0     5.700      9
            0  1  0  0     5.700     10
            0  0  1  0     5.700     11
            1  0  0  0     3.050     12
            0  1  0  0     3.050     13
            0  0  1  0     3.050     14
            1  0  0  0     1.650     15
            0  1  0  0     1.650     16
            0  0  1  0     1.650     17
            1  0  0  0     1.000     18
            0  1  0  0     1.000     19
            0  0  1  0     1.000     20
            2  0  0  0     2.500     21
            1  1  0  0     2.500     22
            1  0  1  0     2.500     23
            0  2  0  0     2.500     24
            0  1  1  0     2.500     25
            0  0  2  0     2.500     26
            2  0  0  0     1.500     27
            1  1  0  0     1.500     28
            1  0  1  0     1.500     29
            0  2  0  0     1.500     30
            0  1  1  0     1.500     31
            0  0  2  0     1.500     32
            3  0  0  0     4.000     33
            2  1  0  0     4.000     34
            2  0  1  0     4.000     35
            1  2  0  0     4.000     36
            1  1  1  0     4.000     37
            1  0  2  0     4.000     38
            0  3  0  0     4.000     39
            0  2  1  0     4.000     40
            0  1  2  0     4.000     41
            0  0  3  0     4.000     42
            3  0  0  0     2.000     43
            2  1  0  0     2.000     44
            2  0  1  0     2.000     45
            1  2  0  0     2.000     46
            1  1  1  0     2.000     47
            1  0  2  0     2.000     48
            0  3  0  0     2.000     49
            0  2  1  0     2.000     50
            0  1  2  0     2.000     51
            0  0  3  0     2.000     52
1
 ***************************************************************************************************



                                              ***********************
                                              *  T E C H N I C A L  *
                                              ***********************
  



 =============================================================
 P A R A L L E L I Z A T I O N  and  V E C T O R I Z A T I O N
 =============================================================
  
 Nr of parallel processes:                                1
 Maximum vector length in NumInt loops:                 128



 ===============
 I O  vs.  C P U  ***  (store numerical data on disk or recalculate)  ***
 ===============
  
 Basis functions:   recalculate when needed
 Fit functions:     recalculate when needed

 IO buffersize (Mb):                                     64.000000



 =====================
 S C F   U P D A T E S
 =====================
  
 Max. nr. of cycles:                               100
 Convergence criterion:                              0.0000000100
   secondary criterion:                              0.0000000100

 Mix parameter (when DIIS does not apply):           0.2000000000
 Special mix parameter for the first cycle:          1.0000000000


 DIIS (Direct Inversion in Iteration Space)
    Replace damping when SCF Error is below:         0.5000000000
    Apply anyway after SCF cycle:
                                                     5
    (Max.) nr. of expansion vectors:                10

    Upperbound on expansion coefficients:            5.0000000000
    (when exceeded, IterationSpace is re-built)
    2nd Upperbound on coefficients:                 25.0000000000
    (when exceeded, simple damping will be used)
 Automatic ElectronSmearing (in case of problematic SCF convergence) disabled



 =================
 P R E C I S I O N  ***  (General: NumInt, NeglectFunctionTails, ...)  ***
 =================
  

 NumInt:           Target precision:                10.0000000000
 -------           Initial precision:               10.0000000000
                   Min. precision (optimization):   10.0000000000

 Neglect Functions:          Basis functions:        0.1000000000E-11
 ------------------          Fit functions:          0.1000000000E-11



 ===========================
 L I N E A R   S C A L I N G
 ===========================
  

 Cut-off radii density fit:                        0.1000000000E-13
 Overlap cut-off criterion AO matrix elements:     0.1000000000E-11
 Cut-offs for Coulomb potential and fitted density:0.1000000000E-13
 Cut-off criterion for Coulomb multipole terms:    0.1000000000E-13
 Progressive Convergence parameter:                 0.000000000    
1
 ***************************************************************************************************



                                            ***************************
                                            *  C O M P U T A T I O N  *
                                            ***************************
  

 Number of elements of the density matrix on this node (used, total):      1378      1378



 ====================================================
 Numerical Integration : Voronoi Polyhedra (Te Velde)
 ====================================================
  
 General Accuracy Parameter :                         10.00

 Symmetry used in the points section:  ATOM  


 Summary of the Symmetry Unique Points:
 --------------------------------------
    Nr. of used Symmetry Operators                     1

    Points in the Atomic Spheres                      61
    Points in the Atomic Polyhedra                     0
    Points in the Outer Region                         0
    ----------------------------------------------------
    Total                                             61

    Sum of Weights                                 58501.056183

 Total nr. of points:         61
 Nr. of blocks:                1
 Block length:                61
 Nr. of dummy points:          0


 Test of Precision of the Numerical Integration Grid
 ===================================================

 Integral of the Total Core Density:                   0.00000000000000



 =====
 S C F
 =====
  

 CYCLE    1
 orbitals (Q,E):
 ---------------
 S :1...8            ( 2.00   -32.0159)  ( 2.00    -8.0044)  ( 0.00    -3.5574)  ( 0.00    -1.9901)
                     ( 0.00    -1.2515)  ( 0.00     4.1058)  ( 0.00    41.2206)  ( 0.00   308.5800)
 P :1...4            ( 4.00    -7.9758)  ( 0.00    -3.5116)  ( 0.00    -1.8856)  ( 0.00     3.1956)
 D :1...2            ( 0.00    -3.5495)  ( 0.00    -1.9917)
 F :1...2            ( 0.00    -1.9999)  ( 0.00     1.0590)

 CYCLE    2
 d-Pmat  mean:  0.11E+01
 imax=      3: -0.25E+02
 orbitals (Q,E):
 ---------------
 S :1...3            ( 2.00   -14.5566)  ( 2.00    -0.0356)  ( 0.00     0.1667)
 P :1...2            ( 4.00     0.2048)  ( 0.00     0.7903)
 D :1...1            ( 0.00     0.7381)
 F :1...1            ( 0.00     1.6042)

 CYCLE    3
 d-Pmat  mean:  0.30E+00
 imax=     20: -0.24E+01
 orbitals (Q,E):
 ---------------
 S :1...3            ( 2.00   -16.2388)  ( 2.00    -0.4301)  ( 0.00     0.0620)
 P :1...2            ( 4.00     0.0108)  ( 0.00     0.4058)
 D :1...1            ( 0.00     0.5775)
 F :1...1            ( 0.00     1.4155)

 CYCLE    4
 d-Pmat  mean:  0.10E+00
 imax=     20: -0.11E+01
 orbitals (Q,E):
 ---------------
 S :1...3            ( 2.00   -17.2725)  ( 2.00    -0.6986)  ( 0.00     0.0275)
 P :1...2            ( 4.00    -0.1717)  ( 0.00     0.2612)
 D :1...1            ( 0.00     0.5085)
 F :1...1            ( 0.00     1.3362)

 CYCLE    5
 d-Pmat  mean:  0.56E-01
 imax=      3:  0.70E+00
 orbitals (Q,E):
 ---------------
 S :1...3            ( 2.00   -18.8741)  ( 2.00    -0.8425)  ( 0.00     0.0251)
 P :1...2            ( 4.00    -0.2957)  ( 0.00     0.2201)
 D :1...1            ( 0.00     0.5505)
 F :1...1            ( 0.00     1.3859)

 CYCLE    6
 d-Pmat  mean:  0.57E-02
 imax=      2:  0.75E-01
 orbitals (Q,E):
 ---------------
 S :1...3            ( 2.00   -18.9263)  ( 2.00    -0.8875)  ( 0.00     0.0144)
 P :1...2            ( 4.00    -0.3386)  ( 0.00     0.1983)
 D :1...1            ( 0.00     0.5241)
 F :1...1            ( 0.00     1.3583)

 CYCLE    7
 d-Pmat  mean:  0.80E-03
 imax=      6: -0.45E-02
 orbitals (Q,E):
 ---------------
 S :1...3            ( 2.00   -18.9106)  ( 2.00    -0.8796)  ( 0.00     0.0160)
 P :1...2            ( 4.00    -0.3310)  ( 0.00     0.2007)
 D :1...1            ( 0.00     0.5265)
 F :1...1            ( 0.00     1.3609)

 CYCLE    8
 d-Pmat  mean:  0.91E-04
 imax=      6:  0.77E-03
 orbitals (Q,E):
 ---------------
 S :1...3            ( 2.00   -18.9122)  ( 2.00    -0.8804)  ( 0.00     0.0159)
 P :1...2            ( 4.00    -0.3317)  ( 0.00     0.2005)
 D :1...1            ( 0.00     0.5262)
 F :1...1            ( 0.00     1.3606)

 CYCLE    9
 d-Pmat  mean:  0.72E-06
 imax=      2: -0.12E-04
 orbitals (Q,E):
 ---------------
 S :1...3            ( 2.00   -18.9122)  ( 2.00    -0.8804)  ( 0.00     0.0159)
 P :1...2            ( 4.00    -0.3317)  ( 0.00     0.2005)
 D :1...1            ( 0.00     0.5262)
 F :1...1            ( 0.00     1.3606)

 CYCLE   10
 d-Pmat  mean:  0.12E-07
 imax=      6: -0.16E-06
 orbitals (Q,E):
 ---------------
 S :1...3            ( 2.00   -18.9122)  ( 2.00    -0.8804)  ( 0.00     0.0159)
 P :1...2            ( 4.00    -0.3317)  ( 0.00     0.2005)
 D :1...1            ( 0.00     0.5262)
 F :1...1            ( 0.00     1.3606)

 CYCLE   11
 d-Pmat  mean:  0.78E-10
 imax=      6: -0.78E-09
 orbitals (Q,E):
 ---------------
 S :1...3            ( 2.00   -18.9122)  ( 2.00    -0.8804)  ( 0.00     0.0159)
 P :1...2            ( 4.00    -0.3317)  ( 0.00     0.2005)
 D :1...1            ( 0.00     0.5262)
 F :1...1            ( 0.00     1.3606)

 SCF CONVERGED

 CYCLE   12
1
 ***************************************************************************************************



                                                *******************
                                                *  R E S U L T S  *
                                                *******************
  
 *** Setting up for NEW gradients in focky
 *** Using FIT density in focky

 Scaled ZORA Orbital Energies, per Irrep and Spin:
 =================================================
                        Occup              E (au)              E (eV)       Diff (eV) with prev. cycle
                        -----      --------------------        ------       --------------------------
 S
               1        2.000     -0.18912163588653E+02      -514.626               6.44E-09
               2        2.000     -0.88042536011068E+00       -23.958               6.64E-09
               3        0.000      0.15917247313072E-01         0.433
               4        0.000      0.47157190559675E+00        12.832
               5        0.000      0.25092163568557E+01        68.279
               6        0.000      0.11901959077829E+02       323.869
               7        0.000      0.52347890774712E+02      1424.459
               8        0.000      0.32159312651583E+03      8750.994
 P
               1        4.000     -0.33172720118487E+00        -9.027               6.51E-09
               2        0.000      0.20052917684509E+00         5.457
               3        0.000      0.16594440947598E+01        45.156
               4        0.000      0.12142335979902E+02       330.410
 D
               1        0.000      0.52623159780474E+00        14.319
               2        0.000      0.24055384911429E+01        65.458
 F
               1        0.000      0.13606224429299E+01        37.024
               2        0.000      0.70188296928074E+01       190.992


 Partially Occupied:
               1 P                -0.33172720118487E+00
  
 HOMO :        2 S                -0.88042536011068E+00
 LUMO :        3 S                 0.15917247313072E-01
  


 Orbital Energies, all Irreps
 ========================================

 Irrep        no.  (spin)   Occup              E (au)                E (eV)
 ---------------------------------------------------------------------------
 S             1             2.00       -0.18912163588653E+02      -514.6262
 S             2             2.00       -0.88042536011068E+00       -23.9576
 P             1             4.00       -0.33172720118487E+00        -9.0268
 S             3             0.00        0.15917247313072E-01         0.4331
 P             2             0.00        0.20052917684509E+00         5.4567
 S             4             0.00        0.47157190559675E+00        12.8321
 D             1             0.00        0.52623159780474E+00        14.3195
 F             1             0.00        0.13606224429299E+01        37.0244
 P             3             0.00        0.16594440947598E+01        45.1558
 D             2             0.00        0.24055384911429E+01        65.4580
 S             5             0.00        0.25092163568557E+01        68.2793
 F             2             0.00        0.70188296928074E+01       190.9921
 S             6             0.00        0.11901959077829E+02       323.8688
 P             4             0.00        0.12142335979902E+02       330.4098
 S             7             0.00        0.52347890774712E+02      1424.4586
 S             8             0.00        0.32159312651583E+03      8750.9942


 All Electron Calculation, thus no Orbital Energies of the Core Orbitals are calculated



 =======================================
 M U L L I K E N   P O P U L A T I O N S
 =======================================
  
 The survey below gives for each atom:
 a) the total charge (Z minus electrons)
 b) the net spin polarization (nr of electrons spin-A minus spin-B)
 c) for each spin the atomic electron valence density (integrated) per L-value.

 Atom              Charge    Spin density          S         P         D         F
 ----              ------    ------------       ------    ------    ------    ------
 1 O               0.0000                       4.0000    4.0000    0.0000    0.0000

 Populations of individual BAS functions
 ----------------------------------------
 1 O            0.0407  0.7707  1.2791 -0.1485  0.7639  1.0393  0.2537  0.0009  0.0450  0.0450
                0.0450  0.4807  0.4807  0.4807  0.6422  0.6422  0.6422  0.1654  0.1654  0.1654
                0.0000  0.0000  0.0000  0.0000  0.0000  0.0000  0.0000  0.0000  0.0000  0.0000
                0.0000  0.0000  0.0000  0.0000  0.0000  0.0000  0.0000  0.0000  0.0000  0.0000
                0.0000  0.0000  0.0000  0.0000  0.0000  0.0000  0.0000  0.0000  0.0000  0.0000
                0.0000  0.0000

 Gross Charges per Atom (Z minus electrons)
 ==========================================
             0.0000
 Net Total:  0.00000000


 Atom-Atom Population Matrix (off-diagonal elements not doubled)
 ===============================================================

     1 :     8.0000



 =============
 Dipole Moment  ***  (Debye)  ***
 =============
  
 Vector   :         0.00000000      0.00000000      0.00000000
 Magnitude:         0.00000000

 This molecular dipole moment is calculated with analytic integration



 =========================================
 Quadrupole Moment (Buckingham convention)  ***  (a.u.)  ***
 =========================================
  
      quad-xx        quad-xy        quad-xz        quad-yy        quad-yz        quad-zz
      0.00000000     0.00000000     0.00000000     0.00000000     0.00000000     0.00000000

 This molecular quadrupole moment is calculated with analytic integration



 ===============================================================================
 Electrostatic potential at the Nuclei due to valence electrons and other nuclei
 ===============================================================================
  
         Atom                  Potential
         ----                  ---------
     1)   O                  22.26490088
 
 
 ========================
 No memory problems found
 ========================
 
 Maximum number of active allocate calls:         476
 
 *******************************************************************************

                             A D F   E X I T
 NORMAL TERMINATION



 =================
 Timing Statistics
 =================
  
 Total Used :                     CPU=        0.31      System=        0.03     Elapsed=        1.48

 Calls  Section                     ( Mean, Percentage )
 ---------------------------------------------------------------------------------------------------
     3  ><      ................      0.00    0.48             0.00    0.03             0.04    8.47
     1  INIT    ................      0.01    3.88             0.00    7.51             0.13    8.53
     1  GEOMET  ................      0.01    4.77             0.01   43.92             0.15   10.38
     1  INPUTA  ................      0.00    0.76             0.00    0.75             0.00    0.23
     1  MAINSY  ................      0.01    2.94             0.00    0.00             0.07    4.52
     1  SYMFIT  ................      0.00    0.12             0.00    0.00             0.00    0.03
     1  CORORT  ................      0.00    0.15             0.00    0.00             0.01    0.42
     1  SYMORB  ................      0.00    0.41             0.00    0.00             0.00    0.08
     1  FITINT  ................      0.01    2.71             0.00    0.00             0.02    1.48
     1  CLSMAT  ................      0.00    0.19             0.00    0.00             0.01    0.48
     1  ORTHON  ................      0.00    0.77             0.00    0.00             0.01    0.59
     1  GENPT   ................      0.01    3.48             0.00    0.00             0.06    4.14
     1  PTBAS   ................      0.00    1.03             0.00    0.00             0.02    1.24
    12  FOCKY   ................      0.01   45.11             0.00   27.20             0.03   20.53
    12  FOCKTR  ................      0.00    1.37             0.00    1.46             0.00    0.31
    12  FOCKNM  ................      0.00    0.14             0.00    0.15             0.00    0.03
    12  SDIIS   ................      0.00    2.16             0.00    3.46             0.03   21.52
    12  EMERGE  ................      0.00   16.77             0.00   14.79             0.02   12.89
     1  COREPS  ................      0.01    1.73             0.00    0.74             0.01    0.57
     1  POPAN   ................      0.00    1.23             0.00    0.00             0.01    0.63
     1  DEBYE   ................      0.00    0.33             0.00    0.00             0.01    0.41
     1  QMPOT   ................      0.00    1.33             0.00    0.00             0.00    0.27
     1  EXIT PROCEDURE .........      0.02    8.13             0.00    0.00             0.03    2.24


 Currently Open Files (EXIT00)
 ====================

 Unit    Access Format  Status   Type       Ident (file)
 -------------------------------------------------------
   3      SEQ    FORM   TRANSP  NORMAL      LOGFILE
                                          ( logfile )


 Buffered I/O statistics
 =======================
 Memory available:                     67108864
 Number of records fitting in memory:     16131
 Input :   0.9% of                         6430  *4k bytes
 Output:   8.3% of                         2767  *4k bytes
 Records from serial files evicted:           0
                    others evicted:           0
 Hash table lookups:      25047 with          0 conflicts (  0.00%)

 ***************************************************************************************************
 (LOGFILE)
 <Jan01-2013> <00:00:10>  DIRAC 2013.01  RunTime: Jan01-2013 00:00:10  Nodes: 1  Procs: 1
 <Jan01-2013> <00:00:10>  NORMAL TERMINATION
 <Jan01-2013> <00:00:10>  END
 <Jan01-2013> <00:00:20>  ADF 2013.01  RunTime: Jan01-2013 00:00:20  Nodes: 1  Procs: 1
 <Jan01-2013> <00:00:20>  Hydrogen (QZ, all electron, 5S 2P 2D)
 <Jan01-2013> <00:00:20>  RunType   : CREATE
 <Jan01-2013> <00:00:21>  Net Charge: 0 (Nuclei minus Electrons)
 <Jan01-2013> <00:00:21>  Symmetry  : ATOM
  Coordinates
    Atom         X           Y           Z   (Angstrom)
    1.H         0.000000    0.000000    0.000000
 <Jan01-2013> <00:00:21>  >>>> CORORT
 <Jan01-2013> <00:00:21>  >>>> FITINT
 <Jan01-2013> <00:00:21>  >>>> CLSMAT
 <Jan01-2013> <00:00:21>  >>>> ORTHON
 <Jan01-2013> <00:00:21>  >>>> GENPT
 <Jan01-2013> <00:00:21>  Acc.Num.Int.=  10.000
 <Jan01-2013> <00:00:21>  Block Length=  44
 <Jan01-2013> <00:00:21>  >>>> PTBAS
 <Jan01-2013> <00:00:21>  >>>> CYCLE
 <Jan01-2013> <00:00:21>    1
 <Jan01-2013> <00:00:21>    2  ErrMat   0.03803841  MaxEl  0.03078708
 <Jan01-2013> <00:00:21>    3  ErrMat   0.00916622  MaxEl -0.00901560
 <Jan01-2013> <00:00:21>    4  ErrMat   0.00035667  MaxEl  0.00031421
 <Jan01-2013> <00:00:21>    5  ErrMat   0.00000962  MaxEl -0.00000892
 <Jan01-2013> <00:00:21>    6  ErrMat   0.00000013  MaxEl  0.00000008
 <Jan01-2013> <00:00:21>    7  ErrMat   0.00000000  MaxEl  0.00000000
 <Jan01-2013> <00:00:21>  SCF converged
 <Jan01-2013> <00:00:21>    8  ErrMat   0.00000000  MaxEl  0.00000000
 <Jan01-2013> <00:00:21>   Solutions with partially occupied orbitals may not be
 <Jan01-2013> <00:00:21>   lowest in energy. You might consider lowering the
 <Jan01-2013> <00:00:21>   symmetry in the input and explicitly specifying integer
 <Jan01-2013> <00:00:21>   occupations. In that case always check that you obtain
 <Jan01-2013> <00:00:21>   an aufbau solution.
 <Jan01-2013> <00:00:21>  >>>> POPAN
 <Jan01-2013> <00:00:21>  >>>> DEBYE
 <Jan01-2013> <00:00:21>  NORMAL TERMINATION
 <Jan01-2013> <00:00:21>  END
 <Jan01-2013> <00:00:32>  DIRAC 2013.01  RunTime: Jan01-2013 00:00:32  Nodes: 1  Procs: 1
 <Jan01-2013> <00:00:32>  NORMAL TERMINATION
 <Jan01-2013> <00:00:32>  END
 <Jan01-2013> <00:00:42>  ADF 2013.01  RunTime: Jan01-2013 00:00:42  Nodes: 1  Procs: 1
 <Jan01-2013> <00:00:42>  Oxygen (QZ, all electron, 8S 4P 2D 2F)
 <Jan01-2013> <00:00:42>  RunType   : CREATE
 <Jan01-2013> <00:00:42>  Net Charge: 0 (Nuclei minus Electrons)
 <Jan01-2013> <00:00:42>  Symmetry  : ATOM
  Coordinates
    Atom         X           Y           Z   (Angstrom)
    1.O         0.000000    0.000000    0.000000
 <Jan01-2013> <00:00:42>  >>>> CORORT
 <Jan01-2013> <00:00:42>  >>>> FITINT
 <Jan01-2013> <00:00:42>  >>>> CLSMAT
 <Jan01-2013> <00:00:42>  >>>> ORTHON
 <Jan01-2013> <00:00:42>  >>>> GENPT
 <Jan01-2013> <00:00:42>  Acc.Num.Int.=  10.000
 <Jan01-2013> <00:00:42>  Block Length=  61
 <Jan01-2013> <00:00:42>  >>>> PTBAS
 <Jan01-2013> <00:00:42>  >>>> CYCLE
 <Jan01-2013> <00:00:42>    1
 <Jan01-2013> <00:00:43>    2  ErrMat   9.74921119  MaxEl  4.13901188
 <Jan01-2013> <00:00:43>    3  ErrMat   3.70162575  MaxEl -2.91656481
 <Jan01-2013> <00:00:43>    4  ErrMat   2.94969144  MaxEl -1.91814782
 <Jan01-2013> <00:00:43>    5  ErrMat   1.88970509  MaxEl -1.07111528
 <Jan01-2013> <00:00:43>    6  ErrMat   0.04645268  MaxEl -0.01876707
 <Jan01-2013> <00:00:43>    7  ErrMat   0.02377733  MaxEl  0.01063636
 <Jan01-2013> <00:00:43>    8  ErrMat   0.00251040  MaxEl -0.00114123
 <Jan01-2013> <00:00:43>    9  ErrMat   0.00000968  MaxEl -0.00000432
 <Jan01-2013> <00:00:43>   10  ErrMat   0.00000018  MaxEl  0.00000007
 <Jan01-2013> <00:00:43>   11  ErrMat   0.00000000  MaxEl  0.00000000
 <Jan01-2013> <00:00:43>  SCF converged
 <Jan01-2013> <00:00:43>   12  ErrMat   0.00000000  MaxEl  0.00000000
 <Jan01-2013> <00:00:43>   Solutions with partially occupied orbitals may not be
 <Jan01-2013> <00:00:43>   lowest in energy. You might consider lowering the
 <Jan01-2013> <00:00:43>   symmetry in the input and explicitly specifying integer
 <Jan01-2013> <00:00:43>   occupations. In that case always check that you obtain
 <Jan01-2013> <00:00:43>   an aufbau solution.
 <Jan01-2013> <00:00:43>  >>>> POPAN
 <Jan01-2013> <00:00:43>  >>>> DEBYE
 <Jan01-2013> <00:00:43>  NORMAL TERMINATION
 <Jan01-2013> <00:00:43>  END

 *******************************************************************************
 *                                                                             *
 *  -------------------------------------                                      *
 *   Amsterdam Density Functional  (ADF)         2013.01   April 2, 2013       *
 *  -------------------------------------                                      *
 *                                               Build 201304112106            *
 *                                                                             *
 *                                                                             *
 *                            =====================                            *
 *                            |                   |                            *
 *                            |     D I R A C     |                            *
 *                            |                   |                            *
 *                            =====================                            *
 *                                                                             *
 *                                                                             *
 *   Online information and documentation:  http://www.scm.com                 *
 *   E-mail:  support@scm.com   info@scm.com                                   *
 *                                                                             *
 *   Scientific publications using ADF results must be properly referenced     *
 *   See the User Manuals (or the web site) for recommended citations          *
 *   The terms and conditions of the End User License Agreement apply to       *
 *   the use of ADF, http://www.scm.com/Sales/LicAgreement.html                *
 *                                                                             *
 ****************************  x86_64_linux_intel  *****************************
 
 Licensed to: Prof. Cacier Hadad / University of Antioquia / Medellin / COLOMBIA
 SCM User ID: u15319
  
 DIRAC 2013.01  RunTime: Jan01-2013 00:00:54  Nodes: 1  Procs: 1

 Temporary files are created in /tmp/kid_0.kH1A7C

1
 MERCURY ATOM all electron RELATIVISTIC, Point Nuc, A and c f
 N J RN H ZN XION ANUC CLIGHT
 5000   22100.00000000197.36710137 80.00000000  0.00000000  201.970625  0.1370360E+03
  PH   PHI     EPS        DEL        DELRVR
  0.30  0.30     2500.00  0.00001000  0.00001000
 IDIRC  NC1  NDEBU NPRIN  IPUN IRCOR IWCOR
   1   300     0     0     0     0     0
   XALPHA      XLATTER      RNUC
  0.70000000  0.00000000  0.00000000 Point Charge
   XN   XL   XJ      XE          XZ      XDELL
  1.0  0.0  0.5   -2600.000       2.000     0.00000
  2.0  0.0  0.5    -425.000       2.000     0.00000
  2.0  1.0  0.5    -425.000       2.000     0.00000
  2.0  1.0  1.5    -425.000       4.000     0.00000
  3.0  0.0  0.5    -100.000       2.000     0.00000
  3.0  1.0  0.5    -100.000       2.000     0.00000
  3.0  1.0  1.5    -100.000       4.000     0.00000
  3.0  2.0  1.5     -80.000       4.000     0.00000
  3.0  2.0  2.5     -80.000       6.000     0.00000
  4.0  0.0  0.5     -22.000       2.000     0.00000
  4.0  1.0  0.5     -20.000       2.000     0.00000
  4.0  1.0  1.5     -20.000       4.000     0.00000
  4.0  2.0  1.5     -11.000       4.000     0.00000
  4.0  2.0  2.5     -11.000       6.000     0.00000
  5.0  0.0  0.5      -3.000       2.000     0.00000
  5.0  1.0  0.5      -2.200       2.000     0.00000
  5.0  1.0  1.5      -2.200       4.000     0.00000
  4.0  3.0  2.5      -1.000       6.000     0.00000
  4.0  3.0  3.5      -1.000       8.000     0.00000
  5.0  2.0  1.5      -0.500       4.000     0.00000
  5.0  2.0  2.5      -0.500       6.000     0.00000
  6.0  0.0  0.5      -0.200       2.000     0.00000
 ICORP=  0  NPCL=  0  DEMP=0.00  PEPS=0.000000
 R(1)=  0.1000000E-08 D=  0.1005080E+01 RNUC=  0.0000000E+00
 converged at cycle   71  DENSITY AVERAGING    0.0786
  MAXIMUM ERROR IN R.V(R) IS   0.62886379E-05
 Q,EY,EV,EZ,ESUM,ETOT,RHO  0.800000E+02 -0.496572E+03 -0.348382E+05 -0.496228E+05 -0.121443E+05 -0.196607E+05  0.241251E-08


 DIRAC CALCULATION
1                    MERCURY ATOM all electron RELATIVISTIC, Point Nuc, A and c from libtc


 EXCHANGE COEFFICIENT=  0.7000000           TAIL CORRECTION=  0.           NUCLEAR RADIUS=  0.000E+00
0                       ORBITAL    N    L    J     ELECTRONS     EIGENVALUE                DELTA OF EIGENV.

                          1S1/2  1.0  0.0  0.5     2.000       -0.3050991E+04                 0.4924760E-04
                          2S1/2  2.0  0.0  0.5     2.000       -0.5405089E+03                 0.4254074E-04
                          2P1/2  2.0  1.0  0.5     2.000       -0.5187363E+03                 0.4411548E-04
                          2P3/2  2.0  1.0  1.5     4.000       -0.4471398E+03                 0.4301762E-04
                          3S1/2  3.0  0.0  0.5     2.000       -0.1282616E+03                 0.3041592E-04
                          3P1/2  3.0  1.0  0.5     2.000       -0.1184367E+03                 0.3137989E-04
                          3P3/2  3.0  1.0  1.5     4.000       -0.1025748E+03                 0.2995242E-04
                          3D3/2  3.0  2.0  1.5     4.000       -0.8626975E+02                 0.3222472E-04
                          3D5/2  3.0  2.0  2.5     6.000       -0.8286728E+02                 0.3175282E-04
                          4S1/2  4.0  0.0  0.5     2.000       -0.2816781E+02                 0.1668735E-04
                          4P1/2  4.0  1.0  0.5     2.000       -0.2395484E+02                 0.1669817E-04
                          4P3/2  4.0  1.0  1.5     4.000       -0.2011425E+02                 0.1516031E-04
                          4D3/2  4.0  2.0  1.5     4.000       -0.1321824E+02                 0.1506585E-04
                          4D5/2  4.0  2.0  2.5     6.000       -0.1250170E+02                 0.1460097E-04
                          5S1/2  5.0  0.0  0.5     2.000       -0.4322160E+01                 0.4190347E-05
                          5P1/2  5.0  1.0  0.5     2.000       -0.2925196E+01                 0.3615407E-05
                          5P3/2  5.0  1.0  1.5     4.000       -0.2244086E+01                 0.2893507E-05
                          4F5/2  4.0  3.0  2.5     6.000       -0.3611586E+01                 0.1388062E-04
                          4F7/2  4.0  3.0  3.5     8.000       -0.3456598E+01                 0.1362401E-04
                          5D3/2  5.0  2.0  1.5     4.000       -0.3813662E+00                 0.1502810E-05
                          5D5/2  5.0  2.0  2.5     6.000       -0.3130964E+00                 0.1345942E-05
                          6S1/2  6.0  0.0  0.5     2.000       -0.2314499E+00                 0.2838078E-06


                                        NUCLEAR CHARGE=   80.000000
                            INTEGRAL OF CHARGE DENSITY=   80.000000
                           SUM OF THE ORBITAL ENERGIES= -12144.2566
                                          TOTAL ENERGY= -19660.7046
                                        KINETIC ENERGY=  22693.9156
                             NUCLEAR ATTRACTION ENERGY= -49622.7822
                             ELECTRON REPULSION ENERGY=   7640.5911
                                       EXCHANGE ENERGY=   -372.4292

 *******************************************************************************

                             D I R A C   E X I T
 NORMAL TERMINATION



 =================
 Timing Statistics
 =================
  
 Total Used :                     CPU=        0.86      System=        0.04     Elapsed=        1.05

 Calls  Section                     ( Mean, Percentage )
 ---------------------------------------------------------------------------------------------------
[...]
   16.H         2.329377   -0.701470   -1.784193
   17.O        -1.513754    0.012382    0.507465
   18.H        -1.464663    0.018455    1.480311
   19.H        -2.870909   -0.361435   -0.103428
 <Jan01-2013> <19:19:42>  >>>> CORORT
 <Jan01-2013> <19:19:42>  >>>> FITINT
 <Jan01-2013> <19:19:45>  >>>> CLSMAT
 <Jan01-2013> <19:19:50>  >>>> ORTHON
 <Jan01-2013> <19:19:51>  >>>> GENPT
 <Jan01-2013> <19:19:51>  Acc.Num.Int.=   6.000
 <Jan01-2013> <19:19:51>  Reusing previous cell geometry for gradient smoothing.
 <Jan01-2013> <19:19:52>  Block Length= 128
 <Jan01-2013> <19:19:53>  >>>> PTBAS
 <Jan01-2013> <19:21:52>  >>>> CYCLE
 <Jan01-2013> <19:21:57>    1
 <Jan01-2013> <19:22:10>    2  ErrMat   0.00002164  MaxEl  0.00000344
 <Jan01-2013> <19:22:25>    3  ErrMat   0.00001379  MaxEl  0.00000248
 <Jan01-2013> <19:22:38>    4  ErrMat   0.00001235  MaxEl -0.00000251
 <Jan01-2013> <19:22:53>    5  ErrMat   0.00000488  MaxEl  0.00000102
 <Jan01-2013> <19:23:05>    6  ErrMat   0.00000168  MaxEl  0.00000031
 <Jan01-2013> <19:23:11>  SCF converged
 <Jan01-2013> <19:23:16>    7  ErrMat   0.00000041  MaxEl -0.00000007
 <Jan01-2013> <19:23:28>  >>>> TOTEN
 <Jan01-2013> <19:23:41>  >>>> POPAN
 <Jan01-2013> <19:23:41>  >>>> DEBYE
 <Jan01-2013> <19:23:41>  >>>> AMETS
 <Jan01-2013> <19:23:41>  >>>> ENGRAD
  Coordinates in Frequency Displacement 107
    Atom         X           Y           Z   (Angstrom)
    1.Hg        0.345421    0.104948   -0.223554
    2.O         4.176689    1.061327   -0.127995
    3.H         4.631246    1.753663   -0.643407
    4.H         4.881309    0.477944    0.209365
    5.O        -5.591540    1.011521   -0.370715
    6.H        -6.032093    1.262036   -1.202481
    7.H        -6.283846    0.930511    0.309282
    8.O        -3.758834   -0.604959   -0.571473
    9.H        -4.007002   -1.528542   -0.385586
   10.H        -4.606871    0.096532   -0.442111
   11.O         1.548540    1.727442    1.337759
   12.H         1.169466    2.449323    1.867039
   13.H         2.514204    1.841840    1.379742
   14.O         2.139023    0.106583   -1.272120
   15.H         3.015708    0.448199   -0.796301
   16.H         2.329377   -0.701470   -1.784193
   17.O        -1.513754    0.012382    0.507465
   18.H        -1.464663    0.008455    1.470311
   19.H        -2.870909   -0.361435   -0.103428
 <Jan01-2013> <19:26:05>  >>>> CORORT
 <Jan01-2013> <19:26:05>  >>>> FITINT
 <Jan01-2013> <19:26:09>  >>>> CLSMAT
 <Jan01-2013> <19:26:14>  >>>> ORTHON
 <Jan01-2013> <19:26:14>  >>>> GENPT
 <Jan01-2013> <19:26:14>  Acc.Num.Int.=   6.000
 <Jan01-2013> <19:26:14>  Reusing previous cell geometry for gradient smoothing.
 <Jan01-2013> <19:26:15>  Block Length= 128
 <Jan01-2013> <19:26:15>  >>>> PTBAS
 <Jan01-2013> <19:28:11>  >>>> CYCLE
 <Jan01-2013> <19:28:17>    1
 <Jan01-2013> <19:28:29>    2  ErrMat   0.02773662  MaxEl -0.00828463
 <Jan01-2013> <19:28:39>    3  ErrMat   0.01008599  MaxEl -0.00317601
 <Jan01-2013> <19:28:50>    4  ErrMat   0.00887132  MaxEl  0.00173767
 <Jan01-2013> <19:29:00>    5  ErrMat   0.00288015  MaxEl  0.00034945
 <Jan01-2013> <19:29:09>    6  ErrMat   0.00061091  MaxEl -0.00008042
 <Jan01-2013> <19:29:18>    7  ErrMat   0.00035276  MaxEl  0.00005404
 <Jan01-2013> <19:29:28>    8  ErrMat   0.00006244  MaxEl  0.00000707
 <Jan01-2013> <19:29:40>    9  ErrMat   0.00001283  MaxEl -0.00000187
 <Jan01-2013> <19:29:54>   10  ErrMat   0.00000594  MaxEl -0.00000057
 <Jan01-2013> <19:30:02>  SCF converged
 <Jan01-2013> <19:30:08>   11  ErrMat   0.00000158  MaxEl -0.00000024
 <Jan01-2013> <19:30:22>  >>>> TOTEN
 <Jan01-2013> <19:30:36>  >>>> POPAN
 <Jan01-2013> <19:30:36>  >>>> DEBYE
 <Jan01-2013> <19:30:37>  >>>> AMETS
 <Jan01-2013> <19:30:38>  >>>> ENGRAD
  Coordinates in Frequency Displacement 108
    Atom         X           Y           Z   (Angstrom)
    1.Hg        0.345421    0.104948   -0.223554
    2.O         4.176689    1.061327   -0.127995
    3.H         4.631246    1.753663   -0.643407
    4.H         4.881309    0.477944    0.209365
    5.O        -5.591540    1.011521   -0.370715
    6.H        -6.032093    1.262036   -1.202481
    7.H        -6.283846    0.930511    0.309282
    8.O        -3.758834   -0.604959   -0.571473
    9.H        -4.007002   -1.528542   -0.385586
   10.H        -4.606871    0.096532   -0.442111
   11.O         1.548540    1.727442    1.337759
   12.H         1.169466    2.449323    1.867039
   13.H         2.514204    1.841840    1.379742
   14.O         2.139023    0.106583   -1.272120
   15.H         3.015708    0.448199   -0.796301
   16.H         2.329377   -0.701470   -1.784193
   17.O        -1.513754    0.012382    0.507465
   18.H        -1.464663    0.008455    1.490311
   19.H        -2.870909   -0.361435   -0.103428
 <Jan01-2013> <19:33:07>  >>>> CORORT
 <Jan01-2013> <19:33:08>  >>>> FITINT
 <Jan01-2013> <19:33:11>  >>>> CLSMAT
 <Jan01-2013> <19:33:16>  >>>> ORTHON
 <Jan01-2013> <19:33:18>  >>>> GENPT
 <Jan01-2013> <19:33:18>  Acc.Num.Int.=   6.000
 <Jan01-2013> <19:33:18>  Reusing previous cell geometry for gradient smoothing.
 <Jan01-2013> <19:33:19>  Block Length= 128
 <Jan01-2013> <19:33:20>  >>>> PTBAS
 <Jan01-2013> <19:36:02>  >>>> CYCLE
 <Jan01-2013> <19:36:09>    1
 <Jan01-2013> <19:36:36>    2  ErrMat   0.00021631  MaxEl -0.00004509
 <Jan01-2013> <19:36:55>    3  ErrMat   0.00008505  MaxEl -0.00001488
 <Jan01-2013> <19:37:24>    4  ErrMat   0.00008196  MaxEl -0.00001476
 <Jan01-2013> <19:37:53>    5  ErrMat   0.00002289  MaxEl  0.00000301
 <Jan01-2013> <19:38:24>    6  ErrMat   0.00000939  MaxEl -0.00000145
 <Jan01-2013> <19:38:52>    7  ErrMat   0.00000255  MaxEl  0.00000038
 <Jan01-2013> <19:39:08>  SCF converged
 <Jan01-2013> <19:39:18>    8  ErrMat   0.00000084  MaxEl  0.00000011
 <Jan01-2013> <19:39:44>  >>>> TOTEN
 <Jan01-2013> <19:40:09>  >>>> POPAN
 <Jan01-2013> <19:40:09>  >>>> DEBYE
 <Jan01-2013> <19:40:10>  >>>> AMETS
 <Jan01-2013> <19:40:10>  >>>> ENGRAD
  Coordinates in Frequency Displacement 109
    Atom         X           Y           Z   (Angstrom)
    1.Hg        0.345421    0.104948   -0.223554
    2.O         4.176689    1.061327   -0.127995
    3.H         4.631246    1.753663   -0.643407
    4.H         4.881309    0.477944    0.209365
    5.O        -5.591540    1.011521   -0.370715
    6.H        -6.032093    1.262036   -1.202481
    7.H        -6.283846    0.930511    0.309282
    8.O        -3.758834   -0.604959   -0.571473
    9.H        -4.007002   -1.528542   -0.385586
   10.H        -4.606871    0.096532   -0.442111
   11.O         1.548540    1.727442    1.337759
   12.H         1.169466    2.449323    1.867039
   13.H         2.514204    1.841840    1.379742
   14.O         2.139023    0.106583   -1.272120
   15.H         3.015708    0.448199   -0.796301
   16.H         2.329377   -0.701470   -1.784193
   17.O        -1.513754    0.012382    0.507465
   18.H        -1.464663    0.008455    1.480311
   19.H        -2.880909   -0.361435   -0.103428
 <Jan01-2013> <19:49:15>  >>>> CORORT
 <Jan01-2013> <19:49:16>  >>>> FITINT
 <Jan01-2013> <19:49:20>  >>>> CLSMAT
 <Jan01-2013> <19:49:25>  >>>> ORTHON
 <Jan01-2013> <19:49:27>  >>>> GENPT
 <Jan01-2013> <19:49:27>  Acc.Num.Int.=   6.000
 <Jan01-2013> <19:49:27>  Reusing previous cell geometry for gradient smoothing.
 <Jan01-2013> <19:49:27>  Block Length= 128
 <Jan01-2013> <19:49:29>  >>>> PTBAS
 <Jan01-2013> <19:53:11>  >>>> CYCLE
 <Jan01-2013> <19:53:19>    1
 <Jan01-2013> <19:53:53>    2  ErrMat   0.02304668  MaxEl -0.00524457
 <Jan01-2013> <19:54:26>    3  ErrMat   0.01008477  MaxEl -0.00246593
 <Jan01-2013> <19:55:00>    4  ErrMat   0.00973261  MaxEl  0.00182630
 <Jan01-2013> <19:55:34>    5  ErrMat   0.00329829  MaxEl  0.00054154
 <Jan01-2013> <19:56:12>    6  ErrMat   0.00048441  MaxEl -0.00006153
 <Jan01-2013> <19:56:41>    7  ErrMat   0.00025599  MaxEl  0.00003678
 <Jan01-2013> <19:57:13>    8  ErrMat   0.00004978  MaxEl -0.00000703
 <Jan01-2013> <19:57:44>    9  ErrMat   0.00002283  MaxEl  0.00000269
 <Jan01-2013> <19:58:19>   10  ErrMat   0.00000710  MaxEl  0.00000094
 <Jan01-2013> <19:58:45>  SCF converged
 <Jan01-2013> <19:58:58>   11  ErrMat   0.00000186  MaxEl -0.00000022
 <Jan01-2013> <19:59:30>  >>>> TOTEN
 <Jan01-2013> <19:59:59>  >>>> POPAN
 <Jan01-2013> <19:59:59>  >>>> DEBYE
 <Jan01-2013> <20:00:00>  >>>> AMETS
 <Jan01-2013> <20:00:00>  >>>> ENGRAD
  Coordinates in Frequency Displacement 110
    Atom         X           Y           Z   (Angstrom)
    1.Hg        0.345421    0.104948   -0.223554
    2.O         4.176689    1.061327   -0.127995
    3.H         4.631246    1.753663   -0.643407
    4.H         4.881309    0.477944    0.209365
    5.O        -5.591540    1.011521   -0.370715
    6.H        -6.032093    1.262036   -1.202481
    7.H        -6.283846    0.930511    0.309282
    8.O        -3.758834   -0.604959   -0.571473
    9.H        -4.007002   -1.528542   -0.385586
   10.H        -4.606871    0.096532   -0.442111
   11.O         1.548540    1.727442    1.337759
   12.H         1.169466    2.449323    1.867039
   13.H         2.514204    1.841840    1.379742
   14.O         2.139023    0.106583   -1.272120
   15.H         3.015708    0.448199   -0.796301
   16.H         2.329377   -0.701470   -1.784193
   17.O        -1.513754    0.012382    0.507465
   18.H        -1.464663    0.008455    1.480311
   19.H        -2.860909   -0.361435   -0.103428
 <Jan01-2013> <20:09:01>  >>>> CORORT
 <Jan01-2013> <20:09:01>  >>>> FITINT
 <Jan01-2013> <20:09:04>  >>>> CLSMAT
 <Jan01-2013> <20:09:08>  >>>> ORTHON
 <Jan01-2013> <20:09:09>  >>>> GENPT
 <Jan01-2013> <20:09:09>  Acc.Num.Int.=   6.000
 <Jan01-2013> <20:09:09>  Reusing previous cell geometry for gradient smoothing.
 <Jan01-2013> <20:09:09>  Block Length= 128
 <Jan01-2013> <20:09:10>  >>>> PTBAS
 <Jan01-2013> <20:11:02>  >>>> CYCLE
 <Jan01-2013> <20:11:07>    1
 <Jan01-2013> <20:11:19>    2  ErrMat   0.00058560  MaxEl -0.00014102
 <Jan01-2013> <20:11:30>    3  ErrMat   0.00030803  MaxEl -0.00007207
 <Jan01-2013> <20:11:40>    4  ErrMat   0.00014789  MaxEl  0.00003255
 <Jan01-2013> <20:11:53>    5  ErrMat   0.00003490  MaxEl  0.00000524
 <Jan01-2013> <20:12:06>    6  ErrMat   0.00001739  MaxEl  0.00000349
 <Jan01-2013> <20:12:22>    7  ErrMat   0.00000755  MaxEl  0.00000119
 <Jan01-2013> <20:12:36>    8  ErrMat   0.00000151  MaxEl -0.00000017
 <Jan01-2013> <20:12:42>  SCF converged
 <Jan01-2013> <20:12:48>    9  ErrMat   0.00000051  MaxEl  0.00000008
 <Jan01-2013> <20:12:59>  >>>> TOTEN
 <Jan01-2013> <20:13:11>  >>>> POPAN
 <Jan01-2013> <20:13:11>  >>>> DEBYE
 <Jan01-2013> <20:13:11>  >>>> AMETS
 <Jan01-2013> <20:13:11>  >>>> ENGRAD
  Coordinates in Frequency Displacement 111
    Atom         X           Y           Z   (Angstrom)
    1.Hg        0.345421    0.104948   -0.223554
    2.O         4.176689    1.061327   -0.127995
    3.H         4.631246    1.753663   -0.643407
    4.H         4.881309    0.477944    0.209365
    5.O        -5.591540    1.011521   -0.370715
    6.H        -6.032093    1.262036   -1.202481
    7.H        -6.283846    0.930511    0.309282
    8.O        -3.758834   -0.604959   -0.571473
    9.H        -4.007002   -1.528542   -0.385586
   10.H        -4.606871    0.096532   -0.442111
   11.O         1.548540    1.727442    1.337759
   12.H         1.169466    2.449323    1.867039
   13.H         2.514204    1.841840    1.379742
   14.O         2.139023    0.106583   -1.272120
   15.H         3.015708    0.448199   -0.796301
   16.H         2.329377   -0.701470   -1.784193
   17.O        -1.513754    0.012382    0.507465
   18.H        -1.464663    0.008455    1.480311
   19.H        -2.870909   -0.371435   -0.103428
 <Jan01-2013> <20:15:17>  >>>> CORORT
 <Jan01-2013> <20:15:18>  >>>> FITINT
 <Jan01-2013> <20:15:20>  >>>> CLSMAT
 <Jan01-2013> <20:15:25>  >>>> ORTHON
 <Jan01-2013> <20:15:26>  >>>> GENPT
 <Jan01-2013> <20:15:26>  Acc.Num.Int.=   6.000
 <Jan01-2013> <20:15:26>  Reusing previous cell geometry for gradient smoothing.
 <Jan01-2013> <20:15:26>  Block Length= 128
 <Jan01-2013> <20:15:27>  >>>> PTBAS
 <Jan01-2013> <20:17:22>  >>>> CYCLE
 <Jan01-2013> <20:17:27>    1
 <Jan01-2013> <20:17:39>    2  ErrMat   0.01315028  MaxEl -0.00290495
 <Jan01-2013> <20:17:55>    3  ErrMat   0.00805781  MaxEl -0.00190215
 <Jan01-2013> <20:18:10>    4  ErrMat   0.00915576  MaxEl  0.00184058
 <Jan01-2013> <20:18:23>    5  ErrMat   0.00167764  MaxEl  0.00021657
 <Jan01-2013> <20:18:33>    6  ErrMat   0.00036923  MaxEl -0.00005057
 <Jan01-2013> <20:18:43>    7  ErrMat   0.00015406  MaxEl -0.00002034
 <Jan01-2013> <20:18:52>    8  ErrMat   0.00003614  MaxEl  0.00000445
 <Jan01-2013> <20:19:02>    9  ErrMat   0.00001577  MaxEl -0.00000203
 <Jan01-2013> <20:19:11>   10  ErrMat   0.00000300  MaxEl  0.00000035
 <Jan01-2013> <20:19:16>  SCF converged
 <Jan01-2013> <20:19:21>   11  ErrMat   0.00000155  MaxEl  0.00000013
 <Jan01-2013> <20:19:32>  >>>> TOTEN
 <Jan01-2013> <20:19:45>  >>>> POPAN
 <Jan01-2013> <20:19:45>  >>>> DEBYE
 <Jan01-2013> <20:19:45>  >>>> AMETS
 <Jan01-2013> <20:19:46>  >>>> ENGRAD
  Coordinates in Frequency Displacement 112
    Atom         X           Y           Z   (Angstrom)
    1.Hg        0.345421    0.104948   -0.223554
    2.O         4.176689    1.061327   -0.127995
    3.H         4.631246    1.753663   -0.643407
    4.H         4.881309    0.477944    0.209365
    5.O        -5.591540    1.011521   -0.370715
    6.H        -6.032093    1.262036   -1.202481
    7.H        -6.283846    0.930511    0.309282
    8.O        -3.758834   -0.604959   -0.571473
    9.H        -4.007002   -1.528542   -0.385586
   10.H        -4.606871    0.096532   -0.442111
   11.O         1.548540    1.727442    1.337759
   12.H         1.169466    2.449323    1.867039
   13.H         2.514204    1.841840    1.379742
   14.O         2.139023    0.106583   -1.272120
   15.H         3.015708    0.448199   -0.796301
   16.H         2.329377   -0.701470   -1.784193
   17.O        -1.513754    0.012382    0.507465
   18.H        -1.464663    0.008455    1.480311
   19.H        -2.870909   -0.351435   -0.103428
 <Jan01-2013> <20:21:55>  >>>> CORORT
 <Jan01-2013> <20:21:56>  >>>> FITINT
 <Jan01-2013> <20:21:59>  >>>> CLSMAT
 <Jan01-2013> <20:22:04>  >>>> ORTHON
 <Jan01-2013> <20:22:05>  >>>> GENPT
 <Jan01-2013> <20:22:05>  Acc.Num.Int.=   6.000
 <Jan01-2013> <20:22:05>  Reusing previous cell geometry for gradient smoothing.
 <Jan01-2013> <20:22:06>  Block Length= 128
 <Jan01-2013> <20:22:07>  >>>> PTBAS
 <Jan01-2013> <20:23:47>  >>>> CYCLE
 <Jan01-2013> <20:23:53>    1
 <Jan01-2013> <20:24:07>    2  ErrMat   0.00008364  MaxEl -0.00002040
 <Jan01-2013> <20:24:19>    3  ErrMat   0.00005458  MaxEl -0.00001364
 <Jan01-2013> <20:24:28>    4  ErrMat   0.00005903  MaxEl -0.00001250
 <Jan01-2013> <20:24:38>    5  ErrMat   0.00000525  MaxEl  0.00000068
 <Jan01-2013> <20:24:44>  SCF converged
 <Jan01-2013> <20:24:49>    6  ErrMat   0.00000323  MaxEl -0.00000047
 <Jan01-2013> <20:24:58>  >>>> TOTEN
 <Jan01-2013> <20:25:10>  >>>> POPAN
 <Jan01-2013> <20:25:10>  >>>> DEBYE
 <Jan01-2013> <20:25:11>  >>>> AMETS
 <Jan01-2013> <20:25:11>  >>>> ENGRAD
  Coordinates in Frequency Displacement 113
    Atom         X           Y           Z   (Angstrom)
    1.Hg        0.345421    0.104948   -0.223554
    2.O         4.176689    1.061327   -0.127995
    3.H         4.631246    1.753663   -0.643407
    4.H         4.881309    0.477944    0.209365
    5.O        -5.591540    1.011521   -0.370715
    6.H        -6.032093    1.262036   -1.202481
    7.H        -6.283846    0.930511    0.309282
    8.O        -3.758834   -0.604959   -0.571473
    9.H        -4.007002   -1.528542   -0.385586
   10.H        -4.606871    0.096532   -0.442111
   11.O         1.548540    1.727442    1.337759
   12.H         1.169466    2.449323    1.867039
   13.H         2.514204    1.841840    1.379742
   14.O         2.139023    0.106583   -1.272120
   15.H         3.015708    0.448199   -0.796301
   16.H         2.329377   -0.701470   -1.784193
   17.O        -1.513754    0.012382    0.507465
   18.H        -1.464663    0.008455    1.480311
   19.H        -2.870909   -0.361435   -0.113428
 <Jan01-2013> <20:27:22>  >>>> CORORT
 <Jan01-2013> <20:27:22>  >>>> FITINT
 <Jan01-2013> <20:27:24>  >>>> CLSMAT
 <Jan01-2013> <20:27:29>  >>>> ORTHON
 <Jan01-2013> <20:27:29>  >>>> GENPT
 <Jan01-2013> <20:27:29>  Acc.Num.Int.=   6.000
 <Jan01-2013> <20:27:30>  Reusing previous cell geometry for gradient smoothing.
 <Jan01-2013> <20:27:30>  Block Length= 128
 <Jan01-2013> <20:27:32>  >>>> PTBAS
 <Jan01-2013> <20:29:41>  >>>> CYCLE
 <Jan01-2013> <20:29:49>    1
 <Jan01-2013> <20:30:21>    2  ErrMat   0.01607780  MaxEl -0.00328747
 <Jan01-2013> <20:30:55>    3  ErrMat   0.00842293  MaxEl -0.00211299
 <Jan01-2013> <20:31:26>    4  ErrMat   0.00803880  MaxEl  0.00174794
 <Jan01-2013> <20:31:55>    5  ErrMat   0.00306457  MaxEl  0.00051379
 <Jan01-2013> <20:32:13>    6  ErrMat   0.00044080  MaxEl -0.00006199
 <Jan01-2013> <20:32:44>    7  ErrMat   0.00019563  MaxEl -0.00002996
 <Jan01-2013> <20:33:11>    8  ErrMat   0.00004905  MaxEl  0.00000604
 <Jan01-2013> <20:33:36>    9  ErrMat   0.00001673  MaxEl -0.00000235
 <Jan01-2013> <20:34:06>   10  ErrMat   0.00000749  MaxEl -0.00000092
 <Jan01-2013> <20:34:21>  SCF converged
 <Jan01-2013> <20:34:32>   11  ErrMat   0.00000161  MaxEl  0.00000021
 <Jan01-2013> <20:35:01>  >>>> TOTEN
 <Jan01-2013> <20:35:25>  >>>> POPAN
 <Jan01-2013> <20:35:26>  >>>> DEBYE
 <Jan01-2013> <20:35:26>  >>>> AMETS
 <Jan01-2013> <20:35:27>  >>>> ENGRAD
  Coordinates in Frequency Displacement 114
    Atom         X           Y           Z   (Angstrom)
    1.Hg        0.345421    0.104948   -0.223554
    2.O         4.176689    1.061327   -0.127995
    3.H         4.631246    1.753663   -0.643407
    4.H         4.881309    0.477944    0.209365
    5.O        -5.591540    1.011521   -0.370715
    6.H        -6.032093    1.262036   -1.202481
    7.H        -6.283846    0.930511    0.309282
    8.O        -3.758834   -0.604959   -0.571473
    9.H        -4.007002   -1.528542   -0.385586
   10.H        -4.606871    0.096532   -0.442111
   11.O         1.548540    1.727442    1.337759
   12.H         1.169466    2.449323    1.867039
   13.H         2.514204    1.841840    1.379742
   14.O         2.139023    0.106583   -1.272120
   15.H         3.015708    0.448199   -0.796301
   16.H         2.329377   -0.701470   -1.784193
   17.O        -1.513754    0.012382    0.507465
   18.H        -1.464663    0.008455    1.480311
   19.H        -2.870909   -0.361435   -0.093428
 <Jan01-2013> <20:45:58>  >>>> CORORT
 <Jan01-2013> <20:45:58>  >>>> FITINT
 <Jan01-2013> <20:46:00>  >>>> CLSMAT
 <Jan01-2013> <20:46:07>  >>>> ORTHON
 <Jan01-2013> <20:46:08>  >>>> GENPT
 <Jan01-2013> <20:46:08>  Acc.Num.Int.=   6.000
 <Jan01-2013> <20:46:08>  Reusing previous cell geometry for gradient smoothing.
 <Jan01-2013> <20:46:09>  Block Length= 128
 <Jan01-2013> <20:46:10>  >>>> PTBAS
 <Jan01-2013> <20:50:27>  >>>> CYCLE
 <Jan01-2013> <20:50:36>    1
 <Jan01-2013> <20:51:14>    2  ErrMat   0.00020056  MaxEl -0.00004983
 <Jan01-2013> <20:51:53>    3  ErrMat   0.00011883  MaxEl -0.00003334
 <Jan01-2013> <20:52:34>    4  ErrMat   0.00007929  MaxEl  0.00001350
 <Jan01-2013> <20:53:11>    5  ErrMat   0.00002693  MaxEl -0.00000572
 <Jan01-2013> <20:53:44>    6  ErrMat   0.00000646  MaxEl -0.00000131
 <Jan01-2013> <20:54:20>    7  ErrMat   0.00000252  MaxEl  0.00000047
 <Jan01-2013> <20:54:45>  SCF converged
 <Jan01-2013> <20:54:59>    8  ErrMat   0.00000054  MaxEl  0.00000009
 <Jan01-2013> <20:55:31>  >>>> TOTEN
 <Jan01-2013> <20:56:00>  >>>> POPAN
 <Jan01-2013> <20:56:01>  >>>> DEBYE
 <Jan01-2013> <20:56:02>  >>>> AMETS
 <Jan01-2013> <20:56:03>  >>>> ENGRAD
 <Jan01-2013> <21:02:47>  Force Constants computed
 <Jan01-2013> <21:02:47>  NORMAL TERMINATION
 <Jan01-2013> <21:02:47>  END
 <Jan01-2013> <21:02:47>  Total Bonding Energy: -43.26791221 a.u.
