
 *******************************************************************************
 *                                                                             *
 *  -------------------------------------                                      *
 *   Amsterdam Density Functional  (ADF)         2013.01   April 2, 2013       *
 *  -------------------------------------                                      *
 *                                               Build 201304112106            *
 *                                                                             *
 *                                                                             *
 *                            =====================                            *
 *                            |                   |                            *
 *                            |     D I R A C     |                            *
 *                            |                   |                            *
 *                            =====================                            *
 *                                                                             *
 *                                                                             *
 *   Online information and documentation:  http://www.scm.com                 *
 *   E-mail:  support@scm.com   info@scm.com                                   *
 *                                                                             *
 *   Scientific publications using ADF results must be properly referenced     *
 *   See the User Manuals (or the web site) for recommended citations          *
 *   The terms and conditions of the End User License Agreement apply to       *
 *   the use of ADF, http://www.scm.com/Sales/LicAgreement.html                *
 *                                                                             *
 ****************************  x86_64_linux_intel  *****************************
 
 Licensed to: Prof. Cacier Hadad / University of Antioquia / Medellin / COLOMBIA
 SCM User ID: u15319
  
 DIRAC 2013.01  RunTime: Jan01-2013 00:00:10  Nodes: 1  Procs: 1

 Temporary files are created in /tmp/kid_0.n66XKi

1
 HYDROGEN ATOM RELATIVISTIC, Point Nuc, A and c from libtc   
 N J RN H ZN XION ANUC CLIGHT
 5000    1100.00000000197.36710137  1.00000000  0.00000000    1.007825  0.1370360E+03
  PH   PHI     EPS        DEL        DELRVR
  0.30  0.30     2500.00  0.00001000  0.00001000
 IDIRC  NC1  NDEBU NPRIN  IPUN IRCOR IWCOR
   1   300     0     0     0     0     0
   XALPHA      XLATTER      RNUC
  0.70000000  0.00000000  0.00000000 Point Charge
   XN   XL   XJ      XE          XZ      XDELL
  1.0  0.0  0.5      -1.000       1.000     0.00000
 ICORP=  0  NPCL=  0  DEMP=0.00  PEPS=0.000000
 R(1)=  0.1000000E-08 D=  0.1005080E+01 RNUC=  0.0000000E+00
 converged at cycle   32  DENSITY AVERAGING    0.2400
  MAXIMUM ERROR IN R.V(R) IS   0.79874357E-05
 Q,EY,EV,EZ,ESUM,ETOT,RHO  0.100000E+01 -0.266614E+00 -0.619969E+00 -0.910779E+00 -0.203940E+00 -0.415998E+00  0.337036E-17


 DIRAC CALCULATION
1                    HYDROGEN ATOM RELATIVISTIC, Point Nuc, A and c from libtc


 EXCHANGE COEFFICIENT=  0.7000000           TAIL CORRECTION=  0.           NUCLEAR RADIUS=  0.000E+00
0                       ORBITAL    N    L    J     ELECTRONS     EIGENVALUE                DELTA OF EIGENV.

                          1S1/2  1.0  0.0  0.5     1.000       -0.2039397E+00                 0.2720093E-06


                                        NUCLEAR CHARGE=    1.000000
                            INTEGRAL OF CHARGE DENSITY=    1.000000
                           SUM OF THE ORBITAL ENERGIES=     -0.2039
                                          TOTAL ENERGY=     -0.4160
                                        KINETIC ENERGY=      0.4160
                             NUCLEAR ATTRACTION ENERGY=     -0.9108
                             ELECTRON REPULSION ENERGY=      0.2787
                                       EXCHANGE ENERGY=     -0.2000

 *******************************************************************************

                             D I R A C   E X I T
 NORMAL TERMINATION



 =================
 Timing Statistics
 =================
  
 Total Used :                     CPU=        0.08      System=        0.02     Elapsed=        0.19

 Calls  Section                     ( Mean, Percentage )
 ---------------------------------------------------------------------------------------------------
     2  ><      ................      0.00    0.00             0.00    0.03             0.00    0.01
     1  EXIT PROCEDURE .........      0.08  100.00             0.02   99.97             0.19   99.99


 Currently Open Files (EXIT00)
 ====================

 Unit    Access Format  Status   Type       Ident (file)
 -------------------------------------------------------
   3      SEQ    FORM   TRANSP  NORMAL      LOGFILE
                                          ( logfile )


 Buffered I/O statistics
 =======================
 Memory available:                     67108864
 Number of records fitting in memory:     16131
 Input : 100.0% of                            0  *4k bytes
 Output: 100.0% of                            0  *4k bytes
 Records from serial files evicted:           0
                    others evicted:           0
 Hash table lookups:          0 with          0 conflicts (100.00%)
(INPUT FILE)
Create H   file=/home/andyzapa/adf2013.01/atomicdata/ZORA/QZ4P/H
XC
GGA PBE
End
relativistic ZORA
Corepotentials t12.rel
End Input

 *******************************************************************************
 *                                                                             *
 *  -------------------------------------                                      *
 *   Amsterdam Density Functional  (ADF)         2013.01   April 2, 2013       *
 *  -------------------------------------                                      *
 *                                               Build 201304112215            *
 *                                                                             *
 *                                                                             *
 *                              =================                              *
 *                              |               |                              *
 *                              |     A D F     |                              *
 *                              |               |                              *
 *                              =================                              *
 *                                                                             *
 *                                                                             *
 *   Online information and documentation:  http://www.scm.com                 *
 *   E-mail:  support@scm.com   info@scm.com                                   *
 *                                                                             *
 *   Scientific publications using ADF results must be properly referenced     *
 *   See the User Manuals (or the web site) for recommended citations          *
 *   The terms and conditions of the End User License Agreement apply to       *
 *   the use of ADF, http://www.scm.com/Sales/LicAgreement.html                *
 *                                                                             *
 ********************  x86_64_linux_intel / platform_mpi  **********************
 
 Licensed to: Prof. Cacier Hadad / University of Antioquia / Medellin / COLOMBIA
 SCM User ID: u15319
  
 ADF 2013.01  RunTime: Jan01-2013 00:00:21  Nodes: 1  Procs: 1

 Temporary files are created in /tmp/kid_0.VNvC2Q

 Hydrogen (QZ, all electron, 5S 2P 2D)



 ===========================
 A T T A C H E D   F I L E S
 ===========================
  
 CREATE - Data File:    /home/andyzapa/adf2013.01/atomicdata/ZORA/QZ4P/H
                        Hydrogen (QZ, all electron, 5S 2P 2D)
 Core Potentials:
         file : t12.rel



 ===============================
 M O D E L   P A R A M E T E R S
 ===============================
  
 DENSITY FUNCTIONAL POTENTIAL (scf)
    LDA:                               PW92                                    == Not Default ==
    Gradient Corrections:              PBEc PBEx                               == Not Default ==

 SPIN  (restricted / unrestr.)
    Molecule:                          Restricted                               

 OTHER ASPECTS
    Relativistic Corrections:          scalar (ZORA,SAPA)                      == Not Default ==

    Nuclear Charge Density Model:      Point Charge Nuclei                                                                                                                                                                                     
    Core Treatment:                    Frozen Orbital(s)                        

    Hyperfine or Zeeman Interaction:   ---                                      



 =====================================
 S Y M M E T R Y ,   E L E C T R O N S
 =====================================
  
 Symmetry: ATOM

 Irreducible Representations, including subspecies
 -------------------------------------------------
 S
 P:x  P:y  P:z
 D:z2  D:x2-y2  D:xy  D:xz  D:yz
 F:z3  F:z  F:xyz  F:z2x  F:z2y  F:x  F:y


 Configuration of Valence Electrons
 ==================================

          Occupation Numbers
          -------------------------------------------------
 S        1
 P        0
 D        0
 F        0
          -------------------------------------------------

 Total:   1

 Net Charge: 0 (Nuclei minus Electrons)

 Preset values for MO occupations will be applied through SCF cycle no. 1000000
 Thereafter, the program will assign electrons to MOs that are spatially
 similar to the occupied MOs in a "reference" cycle ("KeepOrbitals").
 The reference cycle is always the PREVIOUS cycle: it will evolve with
 the SCF procedure.



 ================================
 (Slater-type)  F U N C T I O N S  ***  (Basis and Fit)  ***
 ================================
  

 Atom Type    1  (H)
 ==============

 Valence Basis Sets:   9
 -----------------------
   1 S    3.300000
   1 S    2.000000
   1 S    1.400000
   1 S    1.000000
   1 S    0.710000
   2 P    2.000000
   2 P    1.000000
   3 D    2.500000
   3 D    1.500000

 Charge Fitting Sets (for the computation of the Coulomb Potential):  22
 -----------------------------------------------------------------------
   1 S    6.600000
   1 S    4.620000
   1 S    3.230000
   1 S    2.260000
   1 S    1.580000
   1 S    1.100000
   1 S    0.770000
   2 S    1.000000
   2 P    5.300000
   2 P    3.870000
   2 P    2.820000
   2 P    2.060000
   2 P    1.500000
   3 D    5.800000
   3 D    4.070000
   3 D    2.850000
   3 D    2.000000
   4 F    4.500000
   4 F    3.350000
   4 F    2.500000
   5 G    5.000000
   5 G    3.000000


 BAS: List of all Elementary Cartesian Basis Functions
 =====================================================

 The numbering in the list below (to the right of the function characteristics) is referred
 to in print-outs of MO eigenvectors and Mulliken populations in the BAS representation
 (as contrasted to the SFO representation).

 Notes:
 1. The functions are characterized by a polynomial prefactor (powers of x,y,z and r) and
    an exponential decay factor alpha.
 2. Since the basis sets are specific for an atom TYPE, the individual functions occur on
    all atoms of that type.
 3. The word 'Core' in the left margin signals that it is a Core Function (CF) : not a
    degree of freedom in the valence set, but only used to ensure orthogonalization of
    the other valence basis functions on the frozen Core Orbitals.


 (power of) X  Y  Z  R     Alpha  on Atom
            ==========     =====     ==========

 H                                    1
                                  ---------------------------------------------------------------------------
            0  0  0  0     3.300      1
            0  0  0  0     2.000      2
            0  0  0  0     1.400      3
            0  0  0  0     1.000      4
            0  0  0  0     0.710      5
            1  0  0  0     2.000      6
            0  1  0  0     2.000      7
            0  0  1  0     2.000      8
            1  0  0  0     1.000      9
            0  1  0  0     1.000     10
            0  0  1  0     1.000     11
            2  0  0  0     2.500     12
            1  1  0  0     2.500     13
            1  0  1  0     2.500     14
            0  2  0  0     2.500     15
            0  1  1  0     2.500     16
            0  0  2  0     2.500     17
            2  0  0  0     1.500     18
            1  1  0  0     1.500     19
            1  0  1  0     1.500     20
            0  2  0  0     1.500     21
            0  1  1  0     1.500     22
            0  0  2  0     1.500     23

 Total number of charge fitting functions (nprimf)       107
 Total number of Cartesian basis functions (naos)         23
 Total number of Cartesian core functions  (ncos)          0



 BAS: List of all Elementary Cartesian Basis Functions
 =====================================================

 The numbering in the list below (to the right of the function characteristics) is referred
 to in print-outs of MO eigenvectors and Mulliken populations in the BAS representation
 (as contrasted to the SFO representation).

 Notes:
 1. The functions are characterized by a polynomial prefactor (powers of x,y,z and r) and
    an exponential decay factor alpha.
 2. Since the basis sets are specific for an atom TYPE, the individual functions occur on
    all atoms of that type.
 3. The word 'Core' in the left margin signals that it is a Core Function (CF) : not a
    degree of freedom in the valence set, but only used to ensure orthogonalization of
    the other valence basis functions on the frozen Core Orbitals.


 (power of) X  Y  Z  R     Alpha  on Atom
            ==========     =====     ==========

 H                                    1
                                  ---------------------------------------------------------------------------
            0  0  0  0     3.300      1
            0  0  0  0     2.000      2
            0  0  0  0     1.400      3
            0  0  0  0     1.000      4
            0  0  0  0     0.710      5
            1  0  0  0     2.000      6
            0  1  0  0     2.000      7
            0  0  1  0     2.000      8
            1  0  0  0     1.000      9
            0  1  0  0     1.000     10
            0  0  1  0     1.000     11
            2  0  0  0     2.500     12
            1  1  0  0     2.500     13
            1  0  1  0     2.500     14
            0  2  0  0     2.500     15
            0  1  1  0     2.500     16
            0  0  2  0     2.500     17
            2  0  0  0     1.500     18
            1  1  0  0     1.500     19
            1  0  1  0     1.500     20
            0  2  0  0     1.500     21
            0  1  1  0     1.500     22
            0  0  2  0     1.500     23
1
 ***************************************************************************************************



                                              ***********************
                                              *  T E C H N I C A L  *
                                              ***********************
  



 =============================================================
 P A R A L L E L I Z A T I O N  and  V E C T O R I Z A T I O N
 =============================================================
  
 Nr of parallel processes:                                1
 Maximum vector length in NumInt loops:                 128



 ===============
 I O  vs.  C P U  ***  (store numerical data on disk or recalculate)  ***
 ===============
  
 Basis functions:   recalculate when needed
 Fit functions:     recalculate when needed

 IO buffersize (Mb):                                     64.000000



 =====================
 S C F   U P D A T E S
 =====================
  
 Max. nr. of cycles:                               100
 Convergence criterion:                              0.0000000100
   secondary criterion:                              0.0000000100

 Mix parameter (when DIIS does not apply):           0.2000000000
 Special mix parameter for the first cycle:          1.0000000000


 DIIS (Direct Inversion in Iteration Space)
    Replace damping when SCF Error is below:         0.5000000000
    Apply anyway after SCF cycle:
                                                     5
    (Max.) nr. of expansion vectors:                10

    Upperbound on expansion coefficients:            5.0000000000
    (when exceeded, IterationSpace is re-built)
    2nd Upperbound on coefficients:                 25.0000000000
    (when exceeded, simple damping will be used)
 Automatic ElectronSmearing (in case of problematic SCF convergence) disabled



 =================
 P R E C I S I O N  ***  (General: NumInt, NeglectFunctionTails, ...)  ***
 =================
  

 NumInt:           Target precision:                10.0000000000
 -------           Initial precision:               10.0000000000
                   Min. precision (optimization):   10.0000000000

 Neglect Functions:          Basis functions:        0.1000000000E-11
 ------------------          Fit functions:          0.1000000000E-11



 ===========================
 L I N E A R   S C A L I N G
 ===========================
  

 Cut-off radii density fit:                        0.1000000000E-13
 Overlap cut-off criterion AO matrix elements:     0.1000000000E-11
 Cut-offs for Coulomb potential and fitted density:0.1000000000E-13
 Cut-off criterion for Coulomb multipole terms:    0.1000000000E-13
 Progressive Convergence parameter:                 0.000000000    
1
 ***************************************************************************************************



                                            ***************************
                                            *  C O M P U T A T I O N  *
                                            ***************************
  

 Number of elements of the density matrix on this node (used, total):       276       276



 ====================================================
 Numerical Integration : Voronoi Polyhedra (Te Velde)
 ====================================================
  
 General Accuracy Parameter :                         10.00

 Symmetry used in the points section:  ATOM  


 Summary of the Symmetry Unique Points:
 --------------------------------------
    Nr. of used Symmetry Operators                     1

    Points in the Atomic Spheres                      44
    Points in the Atomic Polyhedra                     0
    Points in the Outer Region                         0
    ----------------------------------------------------
    Total                                             44

    Sum of Weights                                 33854.777883

 Total nr. of points:         44
 Nr. of blocks:                1
 Block length:                44
 Nr. of dummy points:          0


 Test of Precision of the Numerical Integration Grid
 ===================================================

 Integral of the Total Core Density:                   0.00000000000000



 =====
 S C F
 =====
  

 CYCLE    1
 orbitals (Q,E):
 ---------------
 S :1...5            ( 1.00    -0.5000)  ( 0.00    -0.1102)  ( 0.00     0.2912)  ( 0.00     2.1458)
                     ( 0.00    15.1140)
 P :1...2            ( 0.00    -0.0467)  ( 0.00     1.6698)
 D :1...2            ( 0.00     0.4090)  ( 0.00     3.3827)

 CYCLE    2
 d-Pmat  mean:  0.40E-01
 imax=      4: -0.73E+00
 orbitals (Q,E):
 ---------------
 S :1...2            ( 1.00    -0.2213)  ( 0.00     0.0617)
 P :1...1            ( 0.00     0.1820)
 D :1...1            ( 0.00     0.6395)

 CYCLE    3
 d-Pmat  mean:  0.48E-02
 imax=      4:  0.66E-01
 orbitals (Q,E):
 ---------------
 S :1...2            ( 1.00    -0.2392)  ( 0.00     0.0523)
 P :1...1            ( 0.00     0.1713)
 D :1...1            ( 0.00     0.6290)

 CYCLE    4
 d-Pmat  mean:  0.47E-03
 imax=      4: -0.74E-02
 orbitals (Q,E):
 ---------------
 S :1...2            ( 1.00    -0.2386)  ( 0.00     0.0522)
 P :1...1            ( 0.00     0.1716)
 D :1...1            ( 0.00     0.6293)

 CYCLE    5
 d-Pmat  mean:  0.13E-04
 imax=      4:  0.20E-03
 orbitals (Q,E):
 ---------------
 S :1...2            ( 1.00    -0.2386)  ( 0.00     0.0522)
 P :1...1            ( 0.00     0.1716)
 D :1...1            ( 0.00     0.6293)

 CYCLE    6
 d-Pmat  mean:  0.14E-06
 imax=      4:  0.26E-05
 orbitals (Q,E):
 ---------------
 S :1...2            ( 1.00    -0.2386)  ( 0.00     0.0522)
 P :1...1            ( 0.00     0.1716)
 D :1...1            ( 0.00     0.6293)

 CYCLE    7
 d-Pmat  mean:  0.24E-08
 imax=      4:  0.39E-07
 orbitals (Q,E):
 ---------------
 S :1...2            ( 1.00    -0.2386)  ( 0.00     0.0522)
 P :1...1            ( 0.00     0.1716)
 D :1...1            ( 0.00     0.6293)

 SCF CONVERGED

 CYCLE    8
1
 ***************************************************************************************************



                                                *******************
                                                *  R E S U L T S  *
                                                *******************
  
 *** Setting up for NEW gradients in focky
 *** Using FIT density in focky

 Scaled ZORA Orbital Energies, per Irrep and Spin:
 =================================================
                        Occup              E (au)              E (eV)       Diff (eV) with prev. cycle
                        -----      --------------------        ------       --------------------------
 S
               1        1.000     -0.23860414448778E+00        -6.493              -2.14E-10
               2        0.000      0.52240780773135E-01         1.422
               3        0.000      0.50128711414798E+00        13.641
               4        0.000      0.23892611828176E+01        65.015
               5        0.000      0.15295018626305E+02       416.199
 P
               1        0.000      0.17156247999750E+00         4.668
               2        0.000      0.19364620405874E+01        52.694
 D
               1        0.000      0.62928666110106E+00        17.124
               2        0.000      0.36544214463356E+01        99.442


 Partially Occupied:
               1 S                -0.23860414448778E+00
  
 LUMO :        2 S                 0.52240780773135E-01
  


 Orbital Energies, all Irreps
 ========================================

 Irrep        no.  (spin)   Occup              E (au)                E (eV)
 ---------------------------------------------------------------------------
 S             1             1.00       -0.23860414448778E+00        -6.4927
 S             2             0.00        0.52240780773135E-01         1.4215
 P             1             0.00        0.17156247999750E+00         4.6685
 S             3             0.00        0.50128711414798E+00        13.6407
 D             1             0.00        0.62928666110106E+00        17.1238
 P             2             0.00        0.19364620405874E+01        52.6938
 S             4             0.00        0.23892611828176E+01        65.0151
 D             2             0.00        0.36544214463356E+01        99.4419
 S             5             0.00        0.15295018626305E+02       416.1986


 All Electron Calculation, thus no Orbital Energies of the Core Orbitals are calculated



 =======================================
 M U L L I K E N   P O P U L A T I O N S
 =======================================
  
 The survey below gives for each atom:
 a) the total charge (Z minus electrons)
 b) the net spin polarization (nr of electrons spin-A minus spin-B)
 c) for each spin the atomic electron valence density (integrated) per L-value.

 Atom              Charge    Spin density          S         P         D         F
 ----              ------    ------------       ------    ------    ------    ------
 1 H               0.0000                       1.0000    0.0000    0.0000    0.0000

 Populations of individual BAS functions
 ----------------------------------------
 1 H           -0.0037  0.0405  0.0399  0.5670  0.3563  0.0000  0.0000  0.0000  0.0000  0.0000
                0.0000  0.0000  0.0000  0.0000  0.0000  0.0000  0.0000  0.0000  0.0000  0.0000
                0.0000  0.0000  0.0000

 Gross Charges per Atom (Z minus electrons)
 ==========================================
             0.0000
 Net Total:  0.00000000


 Atom-Atom Population Matrix (off-diagonal elements not doubled)
 ===============================================================

     1 :     1.0000



 =============
 Dipole Moment  ***  (Debye)  ***
 =============
  
 Vector   :         0.00000000      0.00000000      0.00000000
 Magnitude:         0.00000000

 This molecular dipole moment is calculated with analytic integration



 =========================================
 Quadrupole Moment (Buckingham convention)  ***  (a.u.)  ***
 =========================================
  
      quad-xx        quad-xy        quad-xz        quad-yy        quad-yz        quad-zz
      0.00000000     0.00000000     0.00000000     0.00000000     0.00000000     0.00000000

 This molecular quadrupole moment is calculated with analytic integration



 ===============================================================================
 Electrostatic potential at the Nuclei due to valence electrons and other nuclei
 ===============================================================================
  
         Atom                  Potential
         ----                  ---------
     1)   H                   0.94463948
 
 
 ========================
 No memory problems found
 ========================
 
 Maximum number of active allocate calls:         378
 
 *******************************************************************************

                             A D F   E X I T
 NORMAL TERMINATION



 =================
 Timing Statistics
 =================
  
 Total Used :                     CPU=        0.13      System=        0.05     Elapsed=        1.14

 Calls  Section                     ( Mean, Percentage )
 ---------------------------------------------------------------------------------------------------
     3  ><      ................      0.00    0.28             0.00    1.39             0.01    1.53
     1  INIT    ................      0.01    7.93             0.00    0.62             0.09    7.82
     1  GEOMET  ................      0.00    2.47             0.03   57.74             0.12   10.63
     1  INPUTA  ................      0.00    0.42             0.00    2.27             0.00    0.24
     1  MAINSY  ................      0.00    0.18             0.01   13.29             0.24   20.68
     1  SYMFIT  ................      0.00    0.00             0.00    0.49             0.00    0.02
     1  CORORT  ................      0.00    0.00             0.00    0.67             0.01    0.48
     1  SYMORB  ................      0.00    0.00             0.00    1.11             0.00    0.05
     1  FITINT  ................      0.00    0.35             0.00    5.74             0.01    0.77
     1  CLSMAT  ................      0.00    0.08             0.00    0.51             0.01    0.51
     1  ORTHON  ................      0.00    0.42             0.00    2.77             0.09    7.99
     1  GENPT   ................      0.00    3.79             0.00    2.38             0.09    7.88
     1  PTBAS   ................      0.00    0.90             0.00    1.34             0.01    0.64
     8  FOCKY   ................      0.01   48.09             0.00    4.98             0.02   10.71
     8  FOCKTR  ................      0.00    1.21             0.00    0.25             0.00    0.15
     8  FOCKNM  ................      0.00    0.16             0.00    0.03             0.00    0.02
     8  SDIIS   ................      0.00    2.56             0.00    0.50             0.02   11.07
     8  EMERGE  ................      0.00   12.32             0.00    3.91             0.02   13.77
     1  COREPS  ................      0.00    2.01             0.00    0.00             0.01    0.50
     1  POPAN   ................      0.00    1.46             0.00    0.00             0.01    0.63
     1  DEBYE   ................      0.00    0.42             0.00    0.00             0.01    0.61
     1  QMPOT   ................      0.00    1.68             0.00    0.00             0.00    0.19
     1  EXIT PROCEDURE .........      0.02   13.27             0.00    0.00             0.04    3.11


 Currently Open Files (EXIT00)
 ====================

 Unit    Access Format  Status   Type       Ident (file)
 -------------------------------------------------------
   3      SEQ    FORM   TRANSP  NORMAL      LOGFILE
                                          ( logfile )


 Buffered I/O statistics
 =======================
 Memory available:                     67108864
 Number of records fitting in memory:     16131
 Input :   1.3% of                         3604  *4k bytes
 Output:  10.6% of                         1855  *4k bytes
 Records from serial files evicted:           0
                    others evicted:           0
 Hash table lookups:      14887 with          0 conflicts (  0.00%)

 ***************************************************************************************************
 (LOGFILE)
 <Jan01-2013> <00:00:10>  DIRAC 2013.01  RunTime: Jan01-2013 00:00:10  Nodes: 1  Procs: 1
 <Jan01-2013> <00:00:11>  NORMAL TERMINATION
 <Jan01-2013> <00:00:11>  END
 <Jan01-2013> <00:00:21>  ADF 2013.01  RunTime: Jan01-2013 00:00:21  Nodes: 1  Procs: 1
 <Jan01-2013> <00:00:21>  Hydrogen (QZ, all electron, 5S 2P 2D)
 <Jan01-2013> <00:00:21>  RunType   : CREATE
 <Jan01-2013> <00:00:21>  Net Charge: 0 (Nuclei minus Electrons)
 <Jan01-2013> <00:00:21>  Symmetry  : ATOM
  Coordinates
    Atom         X           Y           Z   (Angstrom)
    1.H         0.000000    0.000000    0.000000
 <Jan01-2013> <00:00:21>  >>>> CORORT
 <Jan01-2013> <00:00:21>  >>>> FITINT
 <Jan01-2013> <00:00:21>  >>>> CLSMAT
 <Jan01-2013> <00:00:21>  >>>> ORTHON
 <Jan01-2013> <00:00:21>  >>>> GENPT
 <Jan01-2013> <00:00:21>  Acc.Num.Int.=  10.000
 <Jan01-2013> <00:00:21>  Block Length=  44
 <Jan01-2013> <00:00:21>  >>>> PTBAS
 <Jan01-2013> <00:00:21>  >>>> CYCLE
 <Jan01-2013> <00:00:21>    1
 <Jan01-2013> <00:00:21>    2  ErrMat   0.03803841  MaxEl  0.03078708
 <Jan01-2013> <00:00:21>    3  ErrMat   0.00916622  MaxEl -0.00901560
 <Jan01-2013> <00:00:21>    4  ErrMat   0.00035667  MaxEl  0.00031421
 <Jan01-2013> <00:00:21>    5  ErrMat   0.00000962  MaxEl -0.00000892
 <Jan01-2013> <00:00:21>    6  ErrMat   0.00000013  MaxEl  0.00000008
 <Jan01-2013> <00:00:22>    7  ErrMat   0.00000000  MaxEl  0.00000000
 <Jan01-2013> <00:00:22>  SCF converged
 <Jan01-2013> <00:00:22>    8  ErrMat   0.00000000  MaxEl  0.00000000
 <Jan01-2013> <00:00:22>   Solutions with partially occupied orbitals may not be
 <Jan01-2013> <00:00:22>   lowest in energy. You might consider lowering the
 <Jan01-2013> <00:00:22>   symmetry in the input and explicitly specifying integer
 <Jan01-2013> <00:00:22>   occupations. In that case always check that you obtain
 <Jan01-2013> <00:00:22>   an aufbau solution.
 <Jan01-2013> <00:00:22>  >>>> POPAN
 <Jan01-2013> <00:00:22>  >>>> DEBYE
 <Jan01-2013> <00:00:22>  NORMAL TERMINATION
 <Jan01-2013> <00:00:22>  END

 *******************************************************************************
 *                                                                             *
 *  -------------------------------------                                      *
 *   Amsterdam Density Functional  (ADF)         2013.01   April 2, 2013       *
 *  -------------------------------------                                      *
 *                                               Build 201304112106            *
 *                                                                             *
 *                                                                             *
 *                            =====================                            *
 *                            |                   |                            *
 *                            |     D I R A C     |                            *
 *                            |                   |                            *
 *                            =====================                            *
 *                                                                             *
 *                                                                             *
 *   Online information and documentation:  http://www.scm.com                 *
 *   E-mail:  support@scm.com   info@scm.com                                   *
 *                                                                             *
 *   Scientific publications using ADF results must be properly referenced     *
 *   See the User Manuals (or the web site) for recommended citations          *
 *   The terms and conditions of the End User License Agreement apply to       *
 *   the use of ADF, http://www.scm.com/Sales/LicAgreement.html                *
 *                                                                             *
 ****************************  x86_64_linux_intel  *****************************
 
 Licensed to: Prof. Cacier Hadad / University of Antioquia / Medellin / COLOMBIA
 SCM User ID: u15319
  
 DIRAC 2013.01  RunTime: Jan01-2013 00:00:32  Nodes: 1  Procs: 1

 Temporary files are created in /tmp/kid_0.EoQpUy

1
 OXYGEN ATOM all electron RELATIVISTIC, Point Nuc, A and c fr
 N J RN H ZN XION ANUC CLIGHT
 5000    4100.00000000197.36710137  8.00000000  0.00000000   15.994914  0.1370360E+03
  PH   PHI     EPS        DEL        DELRVR
  0.30  0.30     2500.00  0.00001000  0.00001000
 IDIRC  NC1  NDEBU NPRIN  IPUN IRCOR IWCOR
   1   300     0     0     0     0     0
   XALPHA      XLATTER      RNUC
  0.70000000  0.00000000  0.00000000 Point Charge
   XN   XL   XJ      XE          XZ      XDELL
  1.0  0.0  0.5      -5.000       2.000     0.00000
  2.0  0.0  0.5      -1.000       2.000     0.00000
  2.0  1.0  0.5      -1.000       2.000     0.00000
  2.0  1.0  1.5      -1.000       2.000     0.00000
 ICORP=  0  NPCL=  0  DEMP=0.00  PEPS=0.000000
 R(1)=  0.1000000E-08 D=  0.1005080E+01 RNUC=  0.0000000E+00
 converged at cycle   28  DENSITY AVERAGING    0.2400
  MAXIMUM ERROR IN R.V(R) IS   0.81125670E-05
 Q,EY,EV,EZ,ESUM,ETOT,RHO  0.800000E+01 -0.101247E+02 -0.114961E+03 -0.177573E+03 -0.405053E+02 -0.743427E+02  0.414766E-14


 DIRAC CALCULATION
1                    OXYGEN ATOM all electron RELATIVISTIC, Point Nuc, A and c from libtc


 EXCHANGE COEFFICIENT=  0.7000000           TAIL CORRECTION=  0.           NUCLEAR RADIUS=  0.000E+00
0                       ORBITAL    N    L    J     ELECTRONS     EIGENVALUE                DELTA OF EIGENV.

                          1S1/2  1.0  0.0  0.5     2.000       -0.1880014E+02                 0.7264359E-06
                          2S1/2  2.0  0.0  0.5     2.000       -0.8412236E+00                 0.5932752E-05
                          2P1/2  2.0  1.0  0.5     2.000       -0.3063203E+00                 0.5998471E-05
                          2P3/2  2.0  1.0  1.5     2.000       -0.3049609E+00                 0.5986971E-05


                                        NUCLEAR CHARGE=    8.000000
                            INTEGRAL OF CHARGE DENSITY=    8.000000
                           SUM OF THE ORBITAL ENERGIES=    -40.5053
                                          TOTAL ENERGY=    -74.3427
                                        KINETIC ENERGY=     74.4552
                             NUCLEAR ATTRACTION ENERGY=   -177.5730
                             ELECTRON REPULSION ENERGY=     36.3686
                                       EXCHANGE ENERGY=     -7.5935

 *******************************************************************************

                             D I R A C   E X I T
 NORMAL TERMINATION



 =================
 Timing Statistics
 =================
  
 Total Used :                     CPU=        0.11      System=        0.02     Elapsed=        0.22

 Calls  Section                     ( Mean, Percentage )
 ---------------------------------------------------------------------------------------------------
     2  ><      ................      0.00    0.00             0.00    0.03             0.00    0.01
     1  EXIT PROCEDURE .........      0.11  100.00             0.02   99.97             0.22   99.99


 Currently Open Files (EXIT00)
 ====================

 Unit    Access Format  Status   Type       Ident (file)
 -------------------------------------------------------
   3      SEQ    FORM   TRANSP  NORMAL      LOGFILE
                                          ( logfile )


 Buffered I/O statistics
 =======================
 Memory available:                     67108864
 Number of records fitting in memory:     16131
 Input : 100.0% of                            0  *4k bytes
 Output: 100.0% of                            0  *4k bytes
 Records from serial files evicted:           0
                    others evicted:           0
 Hash table lookups:          0 with          0 conflicts (100.00%)
(INPUT FILE)
Create O   file=/home/andyzapa/adf2013.01/atomicdata/ZORA/QZ4P/O
XC
GGA PBE
End
relativistic ZORA
Corepotentials t12.rel
End Input

 *******************************************************************************
 *                                                                             *
 *  -------------------------------------                                      *
 *   Amsterdam Density Functional  (ADF)         2013.01   April 2, 2013       *
 *  -------------------------------------                                      *
 *                                               Build 201304112215            *
 *                                                                             *
 *                                                                             *
 *                              =================                              *
 *                              |               |                              *
 *                              |     A D F     |                              *
 *                              |               |                              *
 *                              =================                              *
 *                                                                             *
 *                                                                             *
 *   Online information and documentation:  http://www.scm.com                 *
 *   E-mail:  support@scm.com   info@scm.com                                   *
 *                                                                             *
 *   Scientific publications using ADF results must be properly referenced     *
 *   See the User Manuals (or the web site) for recommended citations          *
 *   The terms and conditions of the End User License Agreement apply to       *
 *   the use of ADF, http://www.scm.com/Sales/LicAgreement.html                *
 *                                                                             *
 ********************  x86_64_linux_intel / platform_mpi  **********************
 
 Licensed to: Prof. Cacier Hadad / University of Antioquia / Medellin / COLOMBIA
 SCM User ID: u15319
  
 ADF 2013.01  RunTime: Jan01-2013 00:00:42  Nodes: 1  Procs: 1

 Temporary files are created in /tmp/kid_0.LYN3Xk

 Oxygen (QZ, all electron, 8S 4P 2D 2F)



 ===========================
 A T T A C H E D   F I L E S
 ===========================
  
 CREATE - Data File:    /home/andyzapa/adf2013.01/atomicdata/ZORA/QZ4P/O
                        Oxygen (QZ, all electron, 8S 4P 2D 2F)
 Core Potentials:
         file : t12.rel



 ===============================
 M O D E L   P A R A M E T E R S
 ===============================
  
 DENSITY FUNCTIONAL POTENTIAL (scf)
    LDA:                               PW92                                    == Not Default ==
    Gradient Corrections:              PBEc PBEx                               == Not Default ==

 SPIN  (restricted / unrestr.)
    Molecule:                          Restricted                               

 OTHER ASPECTS
    Relativistic Corrections:          scalar (ZORA,SAPA)                      == Not Default ==

    Nuclear Charge Density Model:      Point Charge Nuclei                                                                                                                                                                                     
    Core Treatment:                    Frozen Orbital(s)                        

    Hyperfine or Zeeman Interaction:   ---                                      



 =====================================
 S Y M M E T R Y ,   E L E C T R O N S
 =====================================
  
 Symmetry: ATOM

 Irreducible Representations, including subspecies
 -------------------------------------------------
 S
 P:x  P:y  P:z
 D:z2  D:x2-y2  D:xy  D:xz  D:yz
 F:z3  F:z  F:xyz  F:z2x  F:z2y  F:x  F:y


 Configuration of Valence Electrons
 ==================================

          Occupation Numbers
          -------------------------------------------------
 S        2*2
 P        4
 D        0
 F        0
          -------------------------------------------------

 Total:   8

 Net Charge: 0 (Nuclei minus Electrons)

 Preset values for MO occupations will be applied through SCF cycle no. 1000000
 Thereafter, the program will assign electrons to MOs that are spatially
 similar to the occupied MOs in a "reference" cycle ("KeepOrbitals").
 The reference cycle is always the PREVIOUS cycle: it will evolve with
 the SCF procedure.



 ================================
 (Slater-type)  F U N C T I O N S  ***  (Basis and Fit)  ***
 ================================
  

 Atom Type    1  (O)
 ==============

 Valence Basis Sets:  16
 -----------------------
   1 S   14.800000
   1 S    8.750000
   1 S    6.650000
   2 S    7.100000
   2 S    3.200000
   2 S    2.050000
   2 S    1.500000
   2 S    0.750000
   2 P    5.700000
   2 P    3.050000
   2 P    1.650000
   2 P    1.000000
   3 D    2.500000
   3 D    1.500000
   4 F    4.000000
   4 F    2.000000

 Charge Fitting Sets (for the computation of the Coulomb Potential):  37
 -----------------------------------------------------------------------
   1 S   29.600000
   1 S   22.760000
   1 S   17.500000
   1 S   11.580000
   2 S   14.160000
   2 S   10.290000
   2 S    7.480000
   2 S    5.430000
   3 S    5.780000
   3 S    4.410000
   3 S    3.370000
   3 S    2.570000
   3 S    1.960000
   3 S    1.500000
   2 P   14.450000
   2 P    9.770000
   2 P    6.610000
   3 P    6.560000
   3 P    4.710000
   3 P    3.390000
   3 P    2.430000
   3 P    1.750000
   3 D   11.400000
   3 D    7.640000
   3 D    5.120000
   4 D    4.550000
   4 D    3.200000
   4 D    2.250000
   4 F   12.750000
   4 F    8.120000
   4 F    5.170000
   5 F    4.130000
   5 F    2.750000
   5 G    9.700000
   5 G    6.560000
   5 G    4.440000
   5 G    3.000000


 BAS: List of all Elementary Cartesian Basis Functions
 =====================================================

 The numbering in the list below (to the right of the function characteristics) is referred
 to in print-outs of MO eigenvectors and Mulliken populations in the BAS representation
 (as contrasted to the SFO representation).

 Notes:
 1. The functions are characterized by a polynomial prefactor (powers of x,y,z and r) and
    an exponential decay factor alpha.
 2. Since the basis sets are specific for an atom TYPE, the individual functions occur on
    all atoms of that type.
 3. The word 'Core' in the left margin signals that it is a Core Function (CF) : not a
    degree of freedom in the valence set, but only used to ensure orthogonalization of
    the other valence basis functions on the frozen Core Orbitals.


 (power of) X  Y  Z  R     Alpha  on Atom
            ==========     =====     ==========

 O                                    1
                                  ---------------------------------------------------------------------------
            0  0  0  0    14.800      1
            0  0  0  0     8.750      2
            0  0  0  0     6.650      3
            0  0  0  1     7.100      4
            0  0  0  1     3.200      5
            0  0  0  1     2.050      6
            0  0  0  1     1.500      7
            0  0  0  1     0.750      8
            1  0  0  0     5.700      9
            0  1  0  0     5.700     10
            0  0  1  0     5.700     11
            1  0  0  0     3.050     12
            0  1  0  0     3.050     13
            0  0  1  0     3.050     14
            1  0  0  0     1.650     15
            0  1  0  0     1.650     16
            0  0  1  0     1.650     17
            1  0  0  0     1.000     18
            0  1  0  0     1.000     19
            0  0  1  0     1.000     20
            2  0  0  0     2.500     21
            1  1  0  0     2.500     22
            1  0  1  0     2.500     23
            0  2  0  0     2.500     24
            0  1  1  0     2.500     25
            0  0  2  0     2.500     26
            2  0  0  0     1.500     27
            1  1  0  0     1.500     28
            1  0  1  0     1.500     29
            0  2  0  0     1.500     30
            0  1  1  0     1.500     31
            0  0  2  0     1.500     32
            3  0  0  0     4.000     33
            2  1  0  0     4.000     34
            2  0  1  0     4.000     35
            1  2  0  0     4.000     36
            1  1  1  0     4.000     37
            1  0  2  0     4.000     38
            0  3  0  0     4.000     39
            0  2  1  0     4.000     40
            0  1  2  0     4.000     41
            0  0  3  0     4.000     42
            3  0  0  0     2.000     43
            2  1  0  0     2.000     44
            2  0  1  0     2.000     45
            1  2  0  0     2.000     46
            1  1  1  0     2.000     47
            1  0  2  0     2.000     48
            0  3  0  0     2.000     49
            0  2  1  0     2.000     50
            0  1  2  0     2.000     51
            0  0  3  0     2.000     52

 Total number of charge fitting functions (nprimf)       184
 Total number of Cartesian basis functions (naos)         52
 Total number of Cartesian core functions  (ncos)          0



 BAS: List of all Elementary Cartesian Basis Functions
 =====================================================

 The numbering in the list below (to the right of the function characteristics) is referred
 to in print-outs of MO eigenvectors and Mulliken populations in the BAS representation
 (as contrasted to the SFO representation).

 Notes:
 1. The functions are characterized by a polynomial prefactor (powers of x,y,z and r) and
    an exponential decay factor alpha.
 2. Since the basis sets are specific for an atom TYPE, the individual functions occur on
    all atoms of that type.
 3. The word 'Core' in the left margin signals that it is a Core Function (CF) : not a
    degree of freedom in the valence set, but only used to ensure orthogonalization of
    the other valence basis functions on the frozen Core Orbitals.


 (power of) X  Y  Z  R     Alpha  on Atom
            ==========     =====     ==========

 O                                    1
                                  ---------------------------------------------------------------------------
            0  0  0  0    14.800      1
            0  0  0  0     8.750      2
            0  0  0  0     6.650      3
            0  0  0  1     7.100      4
            0  0  0  1     3.200      5
            0  0  0  1     2.050      6
            0  0  0  1     1.500      7
            0  0  0  1     0.750      8
            1  0  0  0     5.700      9
            0  1  0  0     5.700     10
            0  0  1  0     5.700     11
            1  0  0  0     3.050     12
            0  1  0  0     3.050     13
            0  0  1  0     3.050     14
            1  0  0  0     1.650     15
            0  1  0  0     1.650     16
            0  0  1  0     1.650     17
            1  0  0  0     1.000     18
            0  1  0  0     1.000     19
            0  0  1  0     1.000     20
            2  0  0  0     2.500     21
            1  1  0  0     2.500     22
            1  0  1  0     2.500     23
            0  2  0  0     2.500     24
            0  1  1  0     2.500     25
            0  0  2  0     2.500     26
            2  0  0  0     1.500     27
            1  1  0  0     1.500     28
            1  0  1  0     1.500     29
            0  2  0  0     1.500     30
            0  1  1  0     1.500     31
            0  0  2  0     1.500     32
            3  0  0  0     4.000     33
            2  1  0  0     4.000     34
            2  0  1  0     4.000     35
            1  2  0  0     4.000     36
            1  1  1  0     4.000     37
            1  0  2  0     4.000     38
            0  3  0  0     4.000     39
            0  2  1  0     4.000     40
            0  1  2  0     4.000     41
            0  0  3  0     4.000     42
            3  0  0  0     2.000     43
            2  1  0  0     2.000     44
            2  0  1  0     2.000     45
            1  2  0  0     2.000     46
            1  1  1  0     2.000     47
            1  0  2  0     2.000     48
            0  3  0  0     2.000     49
            0  2  1  0     2.000     50
            0  1  2  0     2.000     51
            0  0  3  0     2.000     52
1
 ***************************************************************************************************



                                              ***********************
                                              *  T E C H N I C A L  *
                                              ***********************
  



 =============================================================
 P A R A L L E L I Z A T I O N  and  V E C T O R I Z A T I O N
 =============================================================
  
 Nr of parallel processes:                                1
 Maximum vector length in NumInt loops:                 128



 ===============
 I O  vs.  C P U  ***  (store numerical data on disk or recalculate)  ***
 ===============
  
 Basis functions:   recalculate when needed
 Fit functions:     recalculate when needed

 IO buffersize (Mb):                                     64.000000



 =====================
 S C F   U P D A T E S
 =====================
  
 Max. nr. of cycles:                               100
 Convergence criterion:                              0.0000000100
   secondary criterion:                              0.0000000100

 Mix parameter (when DIIS does not apply):           0.2000000000
 Special mix parameter for the first cycle:          1.0000000000


 DIIS (Direct Inversion in Iteration Space)
    Replace damping when SCF Error is below:         0.5000000000
    Apply anyway after SCF cycle:
                                                     5
    (Max.) nr. of expansion vectors:                10

    Upperbound on expansion coefficients:            5.0000000000
    (when exceeded, IterationSpace is re-built)
    2nd Upperbound on coefficients:                 25.0000000000
    (when exceeded, simple damping will be used)
 Automatic ElectronSmearing (in case of problematic SCF convergence) disabled



 =================
 P R E C I S I O N  ***  (General: NumInt, NeglectFunctionTails, ...)  ***
 =================
  

 NumInt:           Target precision:                10.0000000000
 -------           Initial precision:               10.0000000000
                   Min. precision (optimization):   10.0000000000

 Neglect Functions:          Basis functions:        0.1000000000E-11
 ------------------          Fit functions:          0.1000000000E-11



 ===========================
 L I N E A R   S C A L I N G
 ===========================
  

 Cut-off radii density fit:                        0.1000000000E-13
 Overlap cut-off criterion AO matrix elements:     0.1000000000E-11
 Cut-offs for Coulomb potential and fitted density:0.1000000000E-13
 Cut-off criterion for Coulomb multipole terms:    0.1000000000E-13
 Progressive Convergence parameter:                 0.000000000    
1
 ***************************************************************************************************



                                            ***************************
                                            *  C O M P U T A T I O N  *
                                            ***************************
  

 Number of elements of the density matrix on this node (used, total):      1378      1378



 ====================================================
 Numerical Integration : Voronoi Polyhedra (Te Velde)
 ====================================================
  
 General Accuracy Parameter :                         10.00

 Symmetry used in the points section:  ATOM  


 Summary of the Symmetry Unique Points:
 --------------------------------------
    Nr. of used Symmetry Operators                     1

    Points in the Atomic Spheres                      61
    Points in the Atomic Polyhedra                     0
    Points in the Outer Region                         0
    ----------------------------------------------------
    Total                                             61

    Sum of Weights                                 58501.056183

 Total nr. of points:         61
 Nr. of blocks:                1
 Block length:                61
 Nr. of dummy points:          0


 Test of Precision of the Numerical Integration Grid
 ===================================================

 Integral of the Total Core Density:                   0.00000000000000



 =====
 S C F
 =====
  

 CYCLE    1
 orbitals (Q,E):
 ---------------
 S :1...8            ( 2.00   -32.0159)  ( 2.00    -8.0044)  ( 0.00    -3.5574)  ( 0.00    -1.9901)
                     ( 0.00    -1.2515)  ( 0.00     4.1058)  ( 0.00    41.2206)  ( 0.00   308.5800)
 P :1...4            ( 4.00    -7.9758)  ( 0.00    -3.5116)  ( 0.00    -1.8856)  ( 0.00     3.1956)
 D :1...2            ( 0.00    -3.5495)  ( 0.00    -1.9917)
 F :1...2            ( 0.00    -1.9999)  ( 0.00     1.0590)

 CYCLE    2
 d-Pmat  mean:  0.11E+01
 imax=      3: -0.25E+02
 orbitals (Q,E):
 ---------------
 S :1...3            ( 2.00   -14.5566)  ( 2.00    -0.0356)  ( 0.00     0.1667)
 P :1...2            ( 4.00     0.2048)  ( 0.00     0.7903)
 D :1...1            ( 0.00     0.7381)
 F :1...1            ( 0.00     1.6042)

 CYCLE    3
 d-Pmat  mean:  0.30E+00
 imax=     20: -0.24E+01
 orbitals (Q,E):
 ---------------
 S :1...3            ( 2.00   -16.2388)  ( 2.00    -0.4301)  ( 0.00     0.0620)
 P :1...2            ( 4.00     0.0108)  ( 0.00     0.4058)
 D :1...1            ( 0.00     0.5775)
 F :1...1            ( 0.00     1.4155)

 CYCLE    4
 d-Pmat  mean:  0.10E+00
 imax=     20: -0.11E+01
 orbitals (Q,E):
 ---------------
 S :1...3            ( 2.00   -17.2725)  ( 2.00    -0.6986)  ( 0.00     0.0275)
 P :1...2            ( 4.00    -0.1717)  ( 0.00     0.2612)
 D :1...1            ( 0.00     0.5085)
 F :1...1            ( 0.00     1.3362)

 CYCLE    5
 d-Pmat  mean:  0.56E-01
 imax=      3:  0.70E+00
 orbitals (Q,E):
 ---------------
 S :1...3            ( 2.00   -18.8741)  ( 2.00    -0.8425)  ( 0.00     0.0251)
 P :1...2            ( 4.00    -0.2957)  ( 0.00     0.2201)
 D :1...1            ( 0.00     0.5505)
 F :1...1            ( 0.00     1.3859)

 CYCLE    6
 d-Pmat  mean:  0.57E-02
 imax=      2:  0.75E-01
 orbitals (Q,E):
 ---------------
 S :1...3            ( 2.00   -18.9263)  ( 2.00    -0.8875)  ( 0.00     0.0144)
 P :1...2            ( 4.00    -0.3386)  ( 0.00     0.1983)
 D :1...1            ( 0.00     0.5241)
 F :1...1            ( 0.00     1.3583)

 CYCLE    7
 d-Pmat  mean:  0.80E-03
 imax=      6: -0.45E-02
 orbitals (Q,E):
 ---------------
 S :1...3            ( 2.00   -18.9106)  ( 2.00    -0.8796)  ( 0.00     0.0160)
 P :1...2            ( 4.00    -0.3310)  ( 0.00     0.2007)
 D :1...1            ( 0.00     0.5265)
 F :1...1            ( 0.00     1.3609)

 CYCLE    8
 d-Pmat  mean:  0.91E-04
 imax=      6:  0.77E-03
 orbitals (Q,E):
 ---------------
 S :1...3            ( 2.00   -18.9122)  ( 2.00    -0.8804)  ( 0.00     0.0159)
 P :1...2            ( 4.00    -0.3317)  ( 0.00     0.2005)
 D :1...1            ( 0.00     0.5262)
 F :1...1            ( 0.00     1.3606)

 CYCLE    9
 d-Pmat  mean:  0.72E-06
 imax=      2: -0.12E-04
 orbitals (Q,E):
 ---------------
 S :1...3            ( 2.00   -18.9122)  ( 2.00    -0.8804)  ( 0.00     0.0159)
 P :1...2            ( 4.00    -0.3317)  ( 0.00     0.2005)
 D :1...1            ( 0.00     0.5262)
 F :1...1            ( 0.00     1.3606)

 CYCLE   10
 d-Pmat  mean:  0.12E-07
 imax=      6: -0.16E-06
 orbitals (Q,E):
 ---------------
 S :1...3            ( 2.00   -18.9122)  ( 2.00    -0.8804)  ( 0.00     0.0159)
 P :1...2            ( 4.00    -0.3317)  ( 0.00     0.2005)
 D :1...1            ( 0.00     0.5262)
 F :1...1            ( 0.00     1.3606)

 CYCLE   11
 d-Pmat  mean:  0.78E-10
 imax=      6: -0.78E-09
 orbitals (Q,E):
 ---------------
 S :1...3            ( 2.00   -18.9122)  ( 2.00    -0.8804)  ( 0.00     0.0159)
 P :1...2            ( 4.00    -0.3317)  ( 0.00     0.2005)
 D :1...1            ( 0.00     0.5262)
 F :1...1            ( 0.00     1.3606)

 SCF CONVERGED

 CYCLE   12
1
 ***************************************************************************************************



                                                *******************
                                                *  R E S U L T S  *
                                                *******************
  
 *** Setting up for NEW gradients in focky
 *** Using FIT density in focky

 Scaled ZORA Orbital Energies, per Irrep and Spin:
 =================================================
                        Occup              E (au)              E (eV)       Diff (eV) with prev. cycle
                        -----      --------------------        ------       --------------------------
 S
               1        2.000     -0.18912163588653E+02      -514.626               6.44E-09
               2        2.000     -0.88042536011068E+00       -23.958               6.64E-09
               3        0.000      0.15917247313072E-01         0.433
               4        0.000      0.47157190559675E+00        12.832
               5        0.000      0.25092163568557E+01        68.279
               6        0.000      0.11901959077829E+02       323.869
               7        0.000      0.52347890774712E+02      1424.459
               8        0.000      0.32159312651583E+03      8750.994
 P
               1        4.000     -0.33172720118487E+00        -9.027               6.51E-09
               2        0.000      0.20052917684509E+00         5.457
               3        0.000      0.16594440947598E+01        45.156
               4        0.000      0.12142335979902E+02       330.410
 D
               1        0.000      0.52623159780474E+00        14.319
               2        0.000      0.24055384911429E+01        65.458
 F
               1        0.000      0.13606224429299E+01        37.024
               2        0.000      0.70188296928074E+01       190.992


 Partially Occupied:
               1 P                -0.33172720118487E+00
  
 HOMO :        2 S                -0.88042536011068E+00
 LUMO :        3 S                 0.15917247313072E-01
  


 Orbital Energies, all Irreps
 ========================================

 Irrep        no.  (spin)   Occup              E (au)                E (eV)
 ---------------------------------------------------------------------------
 S             1             2.00       -0.18912163588653E+02      -514.6262
 S             2             2.00       -0.88042536011068E+00       -23.9576
 P             1             4.00       -0.33172720118487E+00        -9.0268
 S             3             0.00        0.15917247313072E-01         0.4331
 P             2             0.00        0.20052917684509E+00         5.4567
 S             4             0.00        0.47157190559675E+00        12.8321
 D             1             0.00        0.52623159780474E+00        14.3195
 F             1             0.00        0.13606224429299E+01        37.0244
 P             3             0.00        0.16594440947598E+01        45.1558
 D             2             0.00        0.24055384911429E+01        65.4580
 S             5             0.00        0.25092163568557E+01        68.2793
 F             2             0.00        0.70188296928074E+01       190.9921
 S             6             0.00        0.11901959077829E+02       323.8688
 P             4             0.00        0.12142335979902E+02       330.4098
 S             7             0.00        0.52347890774712E+02      1424.4586
 S             8             0.00        0.32159312651583E+03      8750.9942


 All Electron Calculation, thus no Orbital Energies of the Core Orbitals are calculated



 =======================================
 M U L L I K E N   P O P U L A T I O N S
 =======================================
  
 The survey below gives for each atom:
 a) the total charge (Z minus electrons)
 b) the net spin polarization (nr of electrons spin-A minus spin-B)
 c) for each spin the atomic electron valence density (integrated) per L-value.

 Atom              Charge    Spin density          S         P         D         F
 ----              ------    ------------       ------    ------    ------    ------
 1 O               0.0000                       4.0000    4.0000    0.0000    0.0000

 Populations of individual BAS functions
 ----------------------------------------
 1 O            0.0407  0.7707  1.2791 -0.1485  0.7639  1.0393  0.2537  0.0009  0.0450  0.0450
                0.0450  0.4807  0.4807  0.4807  0.6422  0.6422  0.6422  0.1654  0.1654  0.1654
                0.0000  0.0000  0.0000  0.0000  0.0000  0.0000  0.0000  0.0000  0.0000  0.0000
                0.0000  0.0000  0.0000  0.0000  0.0000  0.0000  0.0000  0.0000  0.0000  0.0000
                0.0000  0.0000  0.0000  0.0000  0.0000  0.0000  0.0000  0.0000  0.0000  0.0000
                0.0000  0.0000

 Gross Charges per Atom (Z minus electrons)
 ==========================================
             0.0000
 Net Total:  0.00000000


 Atom-Atom Population Matrix (off-diagonal elements not doubled)
 ===============================================================

     1 :     8.0000



 =============
 Dipole Moment  ***  (Debye)  ***
 =============
  
 Vector   :         0.00000000      0.00000000      0.00000000
 Magnitude:         0.00000000

 This molecular dipole moment is calculated with analytic integration



 =========================================
 Quadrupole Moment (Buckingham convention)  ***  (a.u.)  ***
 =========================================
  
      quad-xx        quad-xy        quad-xz        quad-yy        quad-yz        quad-zz
      0.00000000     0.00000000     0.00000000     0.00000000     0.00000000     0.00000000

 This molecular quadrupole moment is calculated with analytic integration



 ===============================================================================
 Electrostatic potential at the Nuclei due to valence electrons and other nuclei
 ===============================================================================
  
         Atom                  Potential
         ----                  ---------
     1)   O                  22.26490088
 
 
 ========================
 No memory problems found
 ========================
 
 Maximum number of active allocate calls:         476
 
 *******************************************************************************

                             A D F   E X I T
 NORMAL TERMINATION



 =================
 Timing Statistics
 =================
  
 Total Used :                     CPU=        0.20      System=        0.05     Elapsed=        1.31

 Calls  Section                     ( Mean, Percentage )
 ---------------------------------------------------------------------------------------------------
     3  ><      ................      0.00    0.46             0.00    0.94             0.01    3.31
     1  INIT    ................      0.01    4.95             0.00    1.88             0.09    6.91
     1  GEOMET  ................      0.01    4.29             0.02   28.13             0.10    7.46
     1  INPUTA  ................      0.00    1.05             0.00    0.00             0.00    0.25
     1  MAINSY  ................      0.01    3.27             0.00    3.19             0.23   17.36
     1  SYMFIT  ................      0.00    0.14             0.00    0.00             0.00    0.02
     1  CORORT  ................      0.00    0.18             0.00    0.00             0.01    0.48
     1  SYMORB  ................      0.00    0.21             0.00    0.79             0.00    0.06
     1  FITINT  ................      0.01    2.62             0.00    0.16             0.01    0.83
     1  CLSMAT  ................      0.00    0.23             0.00    0.00             0.01    0.45
     1  ORTHON  ................      0.00    0.99             0.00    0.00             0.01    0.53
     1  GENPT   ................      0.00    2.11             0.00    6.37             0.03    1.96
     1  PTBAS   ................      0.00    1.11             0.00    0.02             0.02    1.25
    12  FOCKY   ................      0.01   44.77             0.00   35.85             0.02   19.23
    12  FOCKTR  ................      0.00    1.37             0.00    0.92             0.00    0.24
    12  FOCKNM  ................      0.00    0.18             0.00    0.08             0.00    0.03
    12  SDIIS   ................      0.00    2.63             0.00    1.84             0.03   27.74
    12  EMERGE  ................      0.00   16.76             0.00   15.88             0.01    6.12
     1  COREPS  ................      0.00    1.66             0.00    0.74             0.01    0.53
     1  POPAN   ................      0.00    1.28             0.00    0.09             0.01    0.66
     1  DEBYE   ................      0.00    0.37             0.00    0.00             0.02    1.57
     1  QMPOT   ................      0.00    1.68             0.00    0.00             0.00    0.25
     1  EXIT PROCEDURE .........      0.02    7.67             0.00    3.12             0.04    2.74


 Currently Open Files (EXIT00)
 ====================

 Unit    Access Format  Status   Type       Ident (file)
 -------------------------------------------------------
   3      SEQ    FORM   TRANSP  NORMAL      LOGFILE
                                          ( logfile )


 Buffered I/O statistics
 =======================
 Memory available:                     67108864
 Number of records fitting in memory:     16131
 Input :   0.9% of                         6430  *4k bytes
 Output:   8.3% of                         2767  *4k bytes
 Records from serial files evicted:           0
                    others evicted:           0
 Hash table lookups:      25047 with          0 conflicts (  0.00%)

 ***************************************************************************************************
 (LOGFILE)
 <Jan01-2013> <00:00:10>  DIRAC 2013.01  RunTime: Jan01-2013 00:00:10  Nodes: 1  Procs: 1
 <Jan01-2013> <00:00:11>  NORMAL TERMINATION
 <Jan01-2013> <00:00:11>  END
 <Jan01-2013> <00:00:21>  ADF 2013.01  RunTime: Jan01-2013 00:00:21  Nodes: 1  Procs: 1
 <Jan01-2013> <00:00:21>  Hydrogen (QZ, all electron, 5S 2P 2D)
 <Jan01-2013> <00:00:21>  RunType   : CREATE
 <Jan01-2013> <00:00:21>  Net Charge: 0 (Nuclei minus Electrons)
 <Jan01-2013> <00:00:21>  Symmetry  : ATOM
  Coordinates
    Atom         X           Y           Z   (Angstrom)
    1.H         0.000000    0.000000    0.000000
 <Jan01-2013> <00:00:21>  >>>> CORORT
 <Jan01-2013> <00:00:21>  >>>> FITINT
 <Jan01-2013> <00:00:21>  >>>> CLSMAT
 <Jan01-2013> <00:00:21>  >>>> ORTHON
 <Jan01-2013> <00:00:21>  >>>> GENPT
 <Jan01-2013> <00:00:21>  Acc.Num.Int.=  10.000
 <Jan01-2013> <00:00:21>  Block Length=  44
 <Jan01-2013> <00:00:21>  >>>> PTBAS
 <Jan01-2013> <00:00:21>  >>>> CYCLE
 <Jan01-2013> <00:00:21>    1
 <Jan01-2013> <00:00:21>    2  ErrMat   0.03803841  MaxEl  0.03078708
 <Jan01-2013> <00:00:21>    3  ErrMat   0.00916622  MaxEl -0.00901560
 <Jan01-2013> <00:00:21>    4  ErrMat   0.00035667  MaxEl  0.00031421
 <Jan01-2013> <00:00:21>    5  ErrMat   0.00000962  MaxEl -0.00000892
 <Jan01-2013> <00:00:21>    6  ErrMat   0.00000013  MaxEl  0.00000008
 <Jan01-2013> <00:00:22>    7  ErrMat   0.00000000  MaxEl  0.00000000
 <Jan01-2013> <00:00:22>  SCF converged
 <Jan01-2013> <00:00:22>    8  ErrMat   0.00000000  MaxEl  0.00000000
 <Jan01-2013> <00:00:22>   Solutions with partially occupied orbitals may not be
 <Jan01-2013> <00:00:22>   lowest in energy. You might consider lowering the
 <Jan01-2013> <00:00:22>   symmetry in the input and explicitly specifying integer
 <Jan01-2013> <00:00:22>   occupations. In that case always check that you obtain
 <Jan01-2013> <00:00:22>   an aufbau solution.
 <Jan01-2013> <00:00:22>  >>>> POPAN
 <Jan01-2013> <00:00:22>  >>>> DEBYE
 <Jan01-2013> <00:00:22>  NORMAL TERMINATION
 <Jan01-2013> <00:00:22>  END
 <Jan01-2013> <00:00:32>  DIRAC 2013.01  RunTime: Jan01-2013 00:00:32  Nodes: 1  Procs: 1
 <Jan01-2013> <00:00:32>  NORMAL TERMINATION
 <Jan01-2013> <00:00:32>  END
 <Jan01-2013> <00:00:42>  ADF 2013.01  RunTime: Jan01-2013 00:00:42  Nodes: 1  Procs: 1
 <Jan01-2013> <00:00:42>  Oxygen (QZ, all electron, 8S 4P 2D 2F)
 <Jan01-2013> <00:00:42>  RunType   : CREATE
 <Jan01-2013> <00:00:42>  Net Charge: 0 (Nuclei minus Electrons)
 <Jan01-2013> <00:00:42>  Symmetry  : ATOM
  Coordinates
    Atom         X           Y           Z   (Angstrom)
    1.O         0.000000    0.000000    0.000000
 <Jan01-2013> <00:00:43>  >>>> CORORT
 <Jan01-2013> <00:00:43>  >>>> FITINT
 <Jan01-2013> <00:00:43>  >>>> CLSMAT
 <Jan01-2013> <00:00:43>  >>>> ORTHON
 <Jan01-2013> <00:00:43>  >>>> GENPT
 <Jan01-2013> <00:00:43>  Acc.Num.Int.=  10.000
 <Jan01-2013> <00:00:43>  Block Length=  61
 <Jan01-2013> <00:00:43>  >>>> PTBAS
 <Jan01-2013> <00:00:43>  >>>> CYCLE
 <Jan01-2013> <00:00:43>    1
 <Jan01-2013> <00:00:43>    2  ErrMat   9.74921119  MaxEl  4.13901188
 <Jan01-2013> <00:00:43>    3  ErrMat   3.70162575  MaxEl -2.91656481
 <Jan01-2013> <00:00:43>    4  ErrMat   2.94969144  MaxEl -1.91814782
 <Jan01-2013> <00:00:43>    5  ErrMat   1.88970509  MaxEl -1.07111528
 <Jan01-2013> <00:00:43>    6  ErrMat   0.04645268  MaxEl -0.01876707
 <Jan01-2013> <00:00:43>    7  ErrMat   0.02377733  MaxEl  0.01063636
 <Jan01-2013> <00:00:43>    8  ErrMat   0.00251040  MaxEl -0.00114123
 <Jan01-2013> <00:00:43>    9  ErrMat   0.00000968  MaxEl -0.00000432
 <Jan01-2013> <00:00:43>   10  ErrMat   0.00000018  MaxEl  0.00000007
 <Jan01-2013> <00:00:43>   11  ErrMat   0.00000000  MaxEl  0.00000000
 <Jan01-2013> <00:00:43>  SCF converged
 <Jan01-2013> <00:00:43>   12  ErrMat   0.00000000  MaxEl  0.00000000
 <Jan01-2013> <00:00:43>   Solutions with partially occupied orbitals may not be
 <Jan01-2013> <00:00:43>   lowest in energy. You might consider lowering the
 <Jan01-2013> <00:00:43>   symmetry in the input and explicitly specifying integer
 <Jan01-2013> <00:00:43>   occupations. In that case always check that you obtain
 <Jan01-2013> <00:00:43>   an aufbau solution.
 <Jan01-2013> <00:00:43>  >>>> POPAN
 <Jan01-2013> <00:00:43>  >>>> DEBYE
 <Jan01-2013> <00:00:44>  NORMAL TERMINATION
 <Jan01-2013> <00:00:44>  END

 *******************************************************************************
 *                                                                             *
 *  -------------------------------------                                      *
 *   Amsterdam Density Functional  (ADF)         2013.01   April 2, 2013       *
 *  -------------------------------------                                      *
 *                                               Build 201304112106            *
 *                                                                             *
 *                                                                             *
 *                            =====================                            *
 *                            |                   |                            *
 *                            |     D I R A C     |                            *
 *                            |                   |                            *
 *                            =====================                            *
 *                                                                             *
 *                                                                             *
 *   Online information and documentation:  http://www.scm.com                 *
 *   E-mail:  support@scm.com   info@scm.com                                   *
 *                                                                             *
 *   Scientific publications using ADF results must be properly referenced     *
 *   See the User Manuals (or the web site) for recommended citations          *
 *   The terms and conditions of the End User License Agreement apply to       *
 *   the use of ADF, http://www.scm.com/Sales/LicAgreement.html                *
 *                                                                             *
 ****************************  x86_64_linux_intel  *****************************
 
 Licensed to: Prof. Cacier Hadad / University of Antioquia / Medellin / COLOMBIA
 SCM User ID: u15319
  
 DIRAC 2013.01  RunTime: Jan01-2013 00:00:54  Nodes: 1  Procs: 1

 Temporary files are created in /tmp/kid_0.oNzV3b

1
 MERCURY ATOM all electron RELATIVISTIC, Point Nuc, A and c f
 N J RN H ZN XION ANUC CLIGHT
 5000   22100.00000000197.36710137 80.00000000  0.00000000  201.970625  0.1370360E+03
  PH   PHI     EPS        DEL        DELRVR
  0.30  0.30     2500.00  0.00001000  0.00001000
 IDIRC  NC1  NDEBU NPRIN  IPUN IRCOR IWCOR
   1   300     0     0     0     0     0
   XALPHA      XLATTER      RNUC
  0.70000000  0.00000000  0.00000000 Point Charge
   XN   XL   XJ      XE          XZ      XDELL
  1.0  0.0  0.5   -2600.000       2.000     0.00000
  2.0  0.0  0.5    -425.000       2.000     0.00000
  2.0  1.0  0.5    -425.000       2.000     0.00000
  2.0  1.0  1.5    -425.000       4.000     0.00000
  3.0  0.0  0.5    -100.000       2.000     0.00000
  3.0  1.0  0.5    -100.000       2.000     0.00000
  3.0  1.0  1.5    -100.000       4.000     0.00000
  3.0  2.0  1.5     -80.000       4.000     0.00000
  3.0  2.0  2.5     -80.000       6.000     0.00000
  4.0  0.0  0.5     -22.000       2.000     0.00000
  4.0  1.0  0.5     -20.000       2.000     0.00000
  4.0  1.0  1.5     -20.000       4.000     0.00000
  4.0  2.0  1.5     -11.000       4.000     0.00000
  4.0  2.0  2.5     -11.000       6.000     0.00000
  5.0  0.0  0.5      -3.000       2.000     0.00000
  5.0  1.0  0.5      -2.200       2.000     0.00000
  5.0  1.0  1.5      -2.200       4.000     0.00000
  4.0  3.0  2.5      -1.000       6.000     0.00000
  4.0  3.0  3.5      -1.000       8.000     0.00000
  5.0  2.0  1.5      -0.500       4.000     0.00000
  5.0  2.0  2.5      -0.500       6.000     0.00000
  6.0  0.0  0.5      -0.200       2.000     0.00000
 ICORP=  0  NPCL=  0  DEMP=0.00  PEPS=0.000000
 R(1)=  0.1000000E-08 D=  0.1005080E+01 RNUC=  0.0000000E+00
 converged at cycle   71  DENSITY AVERAGING    0.0786
  MAXIMUM ERROR IN R.V(R) IS   0.62886379E-05
 Q,EY,EV,EZ,ESUM,ETOT,RHO  0.800000E+02 -0.496572E+03 -0.348382E+05 -0.496228E+05 -0.121443E+05 -0.196607E+05  0.241251E-08


 DIRAC CALCULATION
1                    MERCURY ATOM all electron RELATIVISTIC, Point Nuc, A and c from libtc


 EXCHANGE COEFFICIENT=  0.7000000           TAIL CORRECTION=  0.           NUCLEAR RADIUS=  0.000E+00
0                       ORBITAL    N    L    J     ELECTRONS     EIGENVALUE                DELTA OF EIGENV.

                          1S1/2  1.0  0.0  0.5     2.000       -0.3050991E+04                 0.4924760E-04
                          2S1/2  2.0  0.0  0.5     2.000       -0.5405089E+03                 0.4254074E-04
                          2P1/2  2.0  1.0  0.5     2.000       -0.5187363E+03                 0.4411548E-04
                          2P3/2  2.0  1.0  1.5     4.000       -0.4471398E+03                 0.4301762E-04
                          3S1/2  3.0  0.0  0.5     2.000       -0.1282616E+03                 0.3041592E-04
                          3P1/2  3.0  1.0  0.5     2.000       -0.1184367E+03                 0.3137989E-04
                          3P3/2  3.0  1.0  1.5     4.000       -0.1025748E+03                 0.2995242E-04
                          3D3/2  3.0  2.0  1.5     4.000       -0.8626975E+02                 0.3222472E-04
                          3D5/2  3.0  2.0  2.5     6.000       -0.8286728E+02                 0.3175282E-04
                          4S1/2  4.0  0.0  0.5     2.000       -0.2816781E+02                 0.1668735E-04
                          4P1/2  4.0  1.0  0.5     2.000       -0.2395484E+02                 0.1669817E-04
                          4P3/2  4.0  1.0  1.5     4.000       -0.2011425E+02                 0.1516031E-04
                          4D3/2  4.0  2.0  1.5     4.000       -0.1321824E+02                 0.1506585E-04
                          4D5/2  4.0  2.0  2.5     6.000       -0.1250170E+02                 0.1460097E-04
                          5S1/2  5.0  0.0  0.5     2.000       -0.4322160E+01                 0.4190347E-05
                          5P1/2  5.0  1.0  0.5     2.000       -0.2925196E+01                 0.3615407E-05
                          5P3/2  5.0  1.0  1.5     4.000       -0.2244086E+01                 0.2893507E-05
                          4F5/2  4.0  3.0  2.5     6.000       -0.3611586E+01                 0.1388062E-04
                          4F7/2  4.0  3.0  3.5     8.000       -0.3456598E+01                 0.1362401E-04
                          5D3/2  5.0  2.0  1.5     4.000       -0.3813662E+00                 0.1502810E-05
                          5D5/2  5.0  2.0  2.5     6.000       -0.3130964E+00                 0.1345942E-05
                          6S1/2  6.0  0.0  0.5     2.000       -0.2314499E+00                 0.2838078E-06


                                        NUCLEAR CHARGE=   80.000000
                            INTEGRAL OF CHARGE DENSITY=   80.000000
                           SUM OF THE ORBITAL ENERGIES= -12144.2566
                                          TOTAL ENERGY= -19660.7046
                                        KINETIC ENERGY=  22693.9156
                             NUCLEAR ATTRACTION ENERGY= -49622.7822
                             ELECTRON REPULSION ENERGY=   7640.5911
                                       EXCHANGE ENERGY=   -372.4292

 *******************************************************************************

                             D I R A C   E X I T
 NORMAL TERMINATION



 =================
 Timing Statistics
 =================
  
 Total Used :                     CPU=        0.59      System=        0.01     Elapsed=        0.75

 Calls  Section                     ( Mean, Percentage )
 ---------------------------------------------------------------------------------------------------
[...]
   15.H         0.781485    2.292331    1.798571
   16.H         0.824304    2.846002    0.356301
   17.O         2.183425   -0.100234   -0.935446
   18.H         3.073920    0.072988   -0.333512
   19.H         2.374382   -0.751442   -1.635327
 <Jan01-2013> <11:12:25>  >>>> CORORT
 <Jan01-2013> <11:12:25>  >>>> FITINT
 <Jan01-2013> <11:12:29>  >>>> CLSMAT
 <Jan01-2013> <11:12:33>  >>>> ORTHON
 <Jan01-2013> <11:12:34>  >>>> GENPT
 <Jan01-2013> <11:12:34>  Acc.Num.Int.=   6.000
 <Jan01-2013> <11:12:34>  Reusing previous cell geometry for gradient smoothing.
 <Jan01-2013> <11:12:34>  Block Length= 128
 <Jan01-2013> <11:12:35>  >>>> PTBAS
 <Jan01-2013> <11:14:27>  >>>> CYCLE
 <Jan01-2013> <11:14:32>    1
 <Jan01-2013> <11:14:46>    2  ErrMat   0.00005715  MaxEl  0.00001232
 <Jan01-2013> <11:14:57>    3  ErrMat   0.00003591  MaxEl  0.00000828
 <Jan01-2013> <11:15:08>    4  ErrMat   0.00002592  MaxEl  0.00000383
 <Jan01-2013> <11:15:20>    5  ErrMat   0.00000639  MaxEl -0.00000096
 <Jan01-2013> <11:15:26>  SCF converged
 <Jan01-2013> <11:15:31>    6  ErrMat   0.00000232  MaxEl  0.00000039
 <Jan01-2013> <11:15:43>  >>>> TOTEN
 <Jan01-2013> <11:15:55>  >>>> POPAN
 <Jan01-2013> <11:15:55>  >>>> DEBYE
 <Jan01-2013> <11:15:55>  >>>> AMETS
 <Jan01-2013> <11:15:55>  >>>> ENGRAD
  Coordinates in Frequency Displacement 107
    Atom         X           Y           Z   (Angstrom)
    1.Hg        0.344023   -0.348261   -0.032437
    2.O        -3.708451    0.549998    0.588594
    3.H        -4.545171    0.098717    0.028338
    4.H        -3.971160    0.819700    1.487309
    5.O        -5.520884   -0.417533   -0.757083
    6.H        -6.205364   -0.993270   -0.372275
    7.H        -5.969455    0.186710   -1.375482
    8.O        -1.474249   -0.682628    0.733600
    9.H        -2.816715    0.020106    0.614876
   10.H        -1.555550   -1.635439    0.920995
   11.O         4.181218    0.331651    0.458409
   12.H         4.835118   -0.371390    0.621896
   13.H         4.686509    1.137618    0.249380
   14.O         0.862147    2.020777    0.868703
   15.H         0.781485    2.292331    1.798571
   16.H         0.824304    2.846002    0.356301
   17.O         2.183425   -0.100234   -0.935446
   18.H         3.073920    0.062988   -0.343512
   19.H         2.374382   -0.751442   -1.635327
 <Jan01-2013> <11:18:20>  >>>> CORORT
 <Jan01-2013> <11:18:21>  >>>> FITINT
 <Jan01-2013> <11:18:24>  >>>> CLSMAT
 <Jan01-2013> <11:18:29>  >>>> ORTHON
 <Jan01-2013> <11:18:30>  >>>> GENPT
 <Jan01-2013> <11:18:30>  Acc.Num.Int.=   6.000
 <Jan01-2013> <11:18:30>  Reusing previous cell geometry for gradient smoothing.
 <Jan01-2013> <11:18:31>  Block Length= 128
 <Jan01-2013> <11:18:31>  >>>> PTBAS
 <Jan01-2013> <11:21:05>  >>>> CYCLE
 <Jan01-2013> <11:21:12>    1
 <Jan01-2013> <11:21:39>    2  ErrMat   0.01844304  MaxEl -0.00331321
 <Jan01-2013> <11:22:04>    3  ErrMat   0.00829827  MaxEl -0.00147945
 <Jan01-2013> <11:22:32>    4  ErrMat   0.00602903  MaxEl  0.00090848
 <Jan01-2013> <11:23:01>    5  ErrMat   0.00303443  MaxEl  0.00055915
 <Jan01-2013> <11:23:37>    6  ErrMat   0.00082931  MaxEl -0.00014641
 <Jan01-2013> <11:24:02>    7  ErrMat   0.00017174  MaxEl -0.00002246
 <Jan01-2013> <11:24:28>    8  ErrMat   0.00008164  MaxEl  0.00001379
 <Jan01-2013> <11:24:54>    9  ErrMat   0.00001327  MaxEl -0.00000189
 <Jan01-2013> <11:25:24>   10  ErrMat   0.00000629  MaxEl  0.00000079
 <Jan01-2013> <11:25:44>  SCF converged
 <Jan01-2013> <11:25:55>   11  ErrMat   0.00000092  MaxEl -0.00000009
 <Jan01-2013> <11:26:23>  >>>> TOTEN
 <Jan01-2013> <11:26:46>  >>>> POPAN
 <Jan01-2013> <11:26:46>  >>>> DEBYE
 <Jan01-2013> <11:26:47>  >>>> AMETS
 <Jan01-2013> <11:26:49>  >>>> ENGRAD
  Coordinates in Frequency Displacement 108
    Atom         X           Y           Z   (Angstrom)
    1.Hg        0.344023   -0.348261   -0.032437
    2.O        -3.708451    0.549998    0.588594
    3.H        -4.545171    0.098717    0.028338
    4.H        -3.971160    0.819700    1.487309
    5.O        -5.520884   -0.417533   -0.757083
    6.H        -6.205364   -0.993270   -0.372275
    7.H        -5.969455    0.186710   -1.375482
    8.O        -1.474249   -0.682628    0.733600
    9.H        -2.816715    0.020106    0.614876
   10.H        -1.555550   -1.635439    0.920995
   11.O         4.181218    0.331651    0.458409
   12.H         4.835118   -0.371390    0.621896
   13.H         4.686509    1.137618    0.249380
   14.O         0.862147    2.020777    0.868703
   15.H         0.781485    2.292331    1.798571
   16.H         0.824304    2.846002    0.356301
   17.O         2.183425   -0.100234   -0.935446
   18.H         3.073920    0.062988   -0.323512
   19.H         2.374382   -0.751442   -1.635327
 <Jan01-2013> <11:37:26>  >>>> CORORT
 <Jan01-2013> <11:37:27>  >>>> FITINT
 <Jan01-2013> <11:37:30>  >>>> CLSMAT
 <Jan01-2013> <11:37:36>  >>>> ORTHON
 <Jan01-2013> <11:37:36>  >>>> GENPT
 <Jan01-2013> <11:37:36>  Acc.Num.Int.=   6.000
 <Jan01-2013> <11:37:37>  Reusing previous cell geometry for gradient smoothing.
 <Jan01-2013> <11:37:37>  Block Length= 128
 <Jan01-2013> <11:37:38>  >>>> PTBAS
 <Jan01-2013> <11:41:18>  >>>> CYCLE
 <Jan01-2013> <11:41:28>    1
 <Jan01-2013> <11:42:04>    2  ErrMat   0.00034616  MaxEl -0.00006710
 <Jan01-2013> <11:42:39>    3  ErrMat   0.00018926  MaxEl -0.00004004
 <Jan01-2013> <11:43:15>    4  ErrMat   0.00016740  MaxEl  0.00002760
 <Jan01-2013> <11:43:48>    5  ErrMat   0.00004824  MaxEl  0.00000862
 <Jan01-2013> <11:44:27>    6  ErrMat   0.00001734  MaxEl -0.00000341
 <Jan01-2013> <11:45:03>    7  ErrMat   0.00000411  MaxEl  0.00000055
 <Jan01-2013> <11:45:26>  SCF converged
 <Jan01-2013> <11:45:38>    8  ErrMat   0.00000156  MaxEl -0.00000025
 <Jan01-2013> <11:46:09>  >>>> TOTEN
 <Jan01-2013> <11:46:36>  >>>> POPAN
 <Jan01-2013> <11:46:36>  >>>> DEBYE
 <Jan01-2013> <11:46:37>  >>>> AMETS
 <Jan01-2013> <11:46:37>  >>>> ENGRAD
  Coordinates in Frequency Displacement 109
    Atom         X           Y           Z   (Angstrom)
    1.Hg        0.344023   -0.348261   -0.032437
    2.O        -3.708451    0.549998    0.588594
    3.H        -4.545171    0.098717    0.028338
    4.H        -3.971160    0.819700    1.487309
    5.O        -5.520884   -0.417533   -0.757083
    6.H        -6.205364   -0.993270   -0.372275
    7.H        -5.969455    0.186710   -1.375482
    8.O        -1.474249   -0.682628    0.733600
    9.H        -2.816715    0.020106    0.614876
   10.H        -1.555550   -1.635439    0.920995
   11.O         4.181218    0.331651    0.458409
   12.H         4.835118   -0.371390    0.621896
   13.H         4.686509    1.137618    0.249380
   14.O         0.862147    2.020777    0.868703
   15.H         0.781485    2.292331    1.798571
   16.H         0.824304    2.846002    0.356301
   17.O         2.183425   -0.100234   -0.935446
   18.H         3.073920    0.062988   -0.333512
   19.H         2.364382   -0.751442   -1.635327
 <Jan01-2013> <11:53:20>  >>>> CORORT
 <Jan01-2013> <11:53:20>  >>>> FITINT
 <Jan01-2013> <11:53:23>  >>>> CLSMAT
 <Jan01-2013> <11:53:28>  >>>> ORTHON
 <Jan01-2013> <11:53:28>  >>>> GENPT
 <Jan01-2013> <11:53:28>  Acc.Num.Int.=   6.000
 <Jan01-2013> <11:53:29>  Reusing previous cell geometry for gradient smoothing.
 <Jan01-2013> <11:53:29>  Block Length= 128
 <Jan01-2013> <11:53:30>  >>>> PTBAS
 <Jan01-2013> <11:55:14>  >>>> CYCLE
 <Jan01-2013> <11:55:20>    1
 <Jan01-2013> <11:55:35>    2  ErrMat   0.01587928  MaxEl -0.00324288
 <Jan01-2013> <11:55:48>    3  ErrMat   0.00926278  MaxEl -0.00208659
 <Jan01-2013> <11:55:59>    4  ErrMat   0.00905744  MaxEl -0.00135916
 <Jan01-2013> <11:56:10>    5  ErrMat   0.00244191  MaxEl  0.00045510
 <Jan01-2013> <11:56:22>    6  ErrMat   0.00061208  MaxEl -0.00008346
 <Jan01-2013> <11:56:33>    7  ErrMat   0.00017407  MaxEl  0.00001988
 <Jan01-2013> <11:56:45>    8  ErrMat   0.00009781  MaxEl  0.00001344
 <Jan01-2013> <11:56:56>    9  ErrMat   0.00001548  MaxEl -0.00000189
 <Jan01-2013> <11:57:08>   10  ErrMat   0.00000633  MaxEl  0.00000083
 <Jan01-2013> <11:57:15>  SCF converged
 <Jan01-2013> <11:57:21>   11  ErrMat   0.00000202  MaxEl -0.00000024
 <Jan01-2013> <11:57:36>  >>>> TOTEN
 <Jan01-2013> <11:57:49>  >>>> POPAN
 <Jan01-2013> <11:57:49>  >>>> DEBYE
 <Jan01-2013> <11:57:49>  >>>> AMETS
 <Jan01-2013> <11:57:50>  >>>> ENGRAD
  Coordinates in Frequency Displacement 110
    Atom         X           Y           Z   (Angstrom)
    1.Hg        0.344023   -0.348261   -0.032437
    2.O        -3.708451    0.549998    0.588594
    3.H        -4.545171    0.098717    0.028338
    4.H        -3.971160    0.819700    1.487309
    5.O        -5.520884   -0.417533   -0.757083
    6.H        -6.205364   -0.993270   -0.372275
    7.H        -5.969455    0.186710   -1.375482
    8.O        -1.474249   -0.682628    0.733600
    9.H        -2.816715    0.020106    0.614876
   10.H        -1.555550   -1.635439    0.920995
   11.O         4.181218    0.331651    0.458409
   12.H         4.835118   -0.371390    0.621896
   13.H         4.686509    1.137618    0.249380
   14.O         0.862147    2.020777    0.868703
   15.H         0.781485    2.292331    1.798571
   16.H         0.824304    2.846002    0.356301
   17.O         2.183425   -0.100234   -0.935446
   18.H         3.073920    0.062988   -0.333512
   19.H         2.384382   -0.751442   -1.635327
 <Jan01-2013> <11:59:59>  >>>> CORORT
 <Jan01-2013> <11:59:59>  >>>> FITINT
 <Jan01-2013> <12:00:02>  >>>> CLSMAT
 <Jan01-2013> <12:00:07>  >>>> ORTHON
 <Jan01-2013> <12:00:08>  >>>> GENPT
 <Jan01-2013> <12:00:08>  Acc.Num.Int.=   6.000
 <Jan01-2013> <12:00:08>  Reusing previous cell geometry for gradient smoothing.
 <Jan01-2013> <12:00:08>  Block Length= 128
 <Jan01-2013> <12:00:09>  >>>> PTBAS
 <Jan01-2013> <12:01:52>  >>>> CYCLE
 <Jan01-2013> <12:01:56>    1
 <Jan01-2013> <12:02:06>    2  ErrMat   0.00003803  MaxEl -0.00000568
 <Jan01-2013> <12:02:18>    3  ErrMat   0.00002343  MaxEl -0.00000376
 <Jan01-2013> <12:02:31>    4  ErrMat   0.00002053  MaxEl  0.00000336
 <Jan01-2013> <12:02:45>    5  ErrMat   0.00000582  MaxEl -0.00000089
 <Jan01-2013> <12:02:52>  SCF converged
 <Jan01-2013> <12:02:58>    6  ErrMat   0.00000228  MaxEl  0.00000047
 <Jan01-2013> <12:03:12>  >>>> TOTEN
 <Jan01-2013> <12:03:25>  >>>> POPAN
 <Jan01-2013> <12:03:25>  >>>> DEBYE
 <Jan01-2013> <12:03:26>  >>>> AMETS
 <Jan01-2013> <12:03:26>  >>>> ENGRAD
  Coordinates in Frequency Displacement 111
    Atom         X           Y           Z   (Angstrom)
    1.Hg        0.344023   -0.348261   -0.032437
    2.O        -3.708451    0.549998    0.588594
    3.H        -4.545171    0.098717    0.028338
    4.H        -3.971160    0.819700    1.487309
    5.O        -5.520884   -0.417533   -0.757083
    6.H        -6.205364   -0.993270   -0.372275
    7.H        -5.969455    0.186710   -1.375482
    8.O        -1.474249   -0.682628    0.733600
    9.H        -2.816715    0.020106    0.614876
   10.H        -1.555550   -1.635439    0.920995
   11.O         4.181218    0.331651    0.458409
   12.H         4.835118   -0.371390    0.621896
   13.H         4.686509    1.137618    0.249380
   14.O         0.862147    2.020777    0.868703
   15.H         0.781485    2.292331    1.798571
   16.H         0.824304    2.846002    0.356301
   17.O         2.183425   -0.100234   -0.935446
   18.H         3.073920    0.062988   -0.333512
   19.H         2.374382   -0.761442   -1.635327
 <Jan01-2013> <12:05:47>  >>>> CORORT
 <Jan01-2013> <12:05:47>  >>>> FITINT
 <Jan01-2013> <12:05:51>  >>>> CLSMAT
 <Jan01-2013> <12:05:55>  >>>> ORTHON
 <Jan01-2013> <12:05:56>  >>>> GENPT
 <Jan01-2013> <12:05:56>  Acc.Num.Int.=   6.000
 <Jan01-2013> <12:05:56>  Reusing previous cell geometry for gradient smoothing.
 <Jan01-2013> <12:05:57>  Block Length= 128
 <Jan01-2013> <12:05:58>  >>>> PTBAS
 <Jan01-2013> <12:07:46>  >>>> CYCLE
 <Jan01-2013> <12:07:52>    1
 <Jan01-2013> <12:08:05>    2  ErrMat   0.02093535  MaxEl -0.00437051
 <Jan01-2013> <12:08:19>    3  ErrMat   0.00961860  MaxEl -0.00191443
 <Jan01-2013> <12:08:33>    4  ErrMat   0.00731252  MaxEl  0.00093857
 <Jan01-2013> <12:08:46>    5  ErrMat   0.00364513  MaxEl -0.00080025
 <Jan01-2013> <12:09:00>    6  ErrMat   0.00080783  MaxEl -0.00012256
 <Jan01-2013> <12:09:14>    7  ErrMat   0.00024348  MaxEl -0.00002373
 <Jan01-2013> <12:09:28>    8  ErrMat   0.00006811  MaxEl  0.00000696
 <Jan01-2013> <12:09:42>    9  ErrMat   0.00001406  MaxEl -0.00000222
 <Jan01-2013> <12:09:55>   10  ErrMat   0.00000793  MaxEl  0.00000123
 <Jan01-2013> <12:10:09>   11  ErrMat   0.00000148  MaxEl -0.00000018
 <Jan01-2013> <12:10:16>  SCF converged
 <Jan01-2013> <12:10:22>   12  ErrMat   0.00000039  MaxEl  0.00000006
 <Jan01-2013> <12:10:36>  >>>> TOTEN
 <Jan01-2013> <12:10:49>  >>>> POPAN
 <Jan01-2013> <12:10:49>  >>>> DEBYE
 <Jan01-2013> <12:10:49>  >>>> AMETS
 <Jan01-2013> <12:10:50>  >>>> ENGRAD
  Coordinates in Frequency Displacement 112
    Atom         X           Y           Z   (Angstrom)
    1.Hg        0.344023   -0.348261   -0.032437
    2.O        -3.708451    0.549998    0.588594
    3.H        -4.545171    0.098717    0.028338
    4.H        -3.971160    0.819700    1.487309
    5.O        -5.520884   -0.417533   -0.757083
    6.H        -6.205364   -0.993270   -0.372275
    7.H        -5.969455    0.186710   -1.375482
    8.O        -1.474249   -0.682628    0.733600
    9.H        -2.816715    0.020106    0.614876
   10.H        -1.555550   -1.635439    0.920995
   11.O         4.181218    0.331651    0.458409
   12.H         4.835118   -0.371390    0.621896
   13.H         4.686509    1.137618    0.249380
   14.O         0.862147    2.020777    0.868703
   15.H         0.781485    2.292331    1.798571
   16.H         0.824304    2.846002    0.356301
   17.O         2.183425   -0.100234   -0.935446
   18.H         3.073920    0.062988   -0.333512
   19.H         2.374382   -0.741442   -1.635327
 <Jan01-2013> <12:13:14>  >>>> CORORT
 <Jan01-2013> <12:13:14>  >>>> FITINT
 <Jan01-2013> <12:13:18>  >>>> CLSMAT
 <Jan01-2013> <12:13:23>  >>>> ORTHON
 <Jan01-2013> <12:13:25>  >>>> GENPT
 <Jan01-2013> <12:13:25>  Acc.Num.Int.=   6.000
 <Jan01-2013> <12:13:25>  Reusing previous cell geometry for gradient smoothing.
 <Jan01-2013> <12:13:25>  Block Length= 128
 <Jan01-2013> <12:13:26>  >>>> PTBAS
 <Jan01-2013> <12:15:42>  >>>> CYCLE
 <Jan01-2013> <12:15:49>    1
 <Jan01-2013> <12:16:21>    2  ErrMat   0.00014574  MaxEl  0.00002889
 <Jan01-2013> <12:16:55>    3  ErrMat   0.00007041  MaxEl  0.00001313
 <Jan01-2013> <12:17:21>    4  ErrMat   0.00005413  MaxEl -0.00000715
 <Jan01-2013> <12:17:40>    5  ErrMat   0.00002495  MaxEl  0.00000523
 <Jan01-2013> <12:18:09>    6  ErrMat   0.00000574  MaxEl -0.00000101
 <Jan01-2013> <12:18:40>    7  ErrMat   0.00000141  MaxEl -0.00000016
 <Jan01-2013> <12:18:59>  SCF converged
 <Jan01-2013> <12:19:11>    8  ErrMat   0.00000034  MaxEl -0.00000005
 <Jan01-2013> <12:19:38>  >>>> TOTEN
 <Jan01-2013> <12:20:04>  >>>> POPAN
 <Jan01-2013> <12:20:04>  >>>> DEBYE
 <Jan01-2013> <12:20:04>  >>>> AMETS
 <Jan01-2013> <12:20:04>  >>>> ENGRAD
  Coordinates in Frequency Displacement 113
    Atom         X           Y           Z   (Angstrom)
    1.Hg        0.344023   -0.348261   -0.032437
    2.O        -3.708451    0.549998    0.588594
    3.H        -4.545171    0.098717    0.028338
    4.H        -3.971160    0.819700    1.487309
    5.O        -5.520884   -0.417533   -0.757083
    6.H        -6.205364   -0.993270   -0.372275
    7.H        -5.969455    0.186710   -1.375482
    8.O        -1.474249   -0.682628    0.733600
    9.H        -2.816715    0.020106    0.614876
   10.H        -1.555550   -1.635439    0.920995
   11.O         4.181218    0.331651    0.458409
   12.H         4.835118   -0.371390    0.621896
   13.H         4.686509    1.137618    0.249380
   14.O         0.862147    2.020777    0.868703
   15.H         0.781485    2.292331    1.798571
   16.H         0.824304    2.846002    0.356301
   17.O         2.183425   -0.100234   -0.935446
   18.H         3.073920    0.062988   -0.333512
   19.H         2.374382   -0.751442   -1.645327
 <Jan01-2013> <12:30:08>  >>>> CORORT
 <Jan01-2013> <12:30:08>  >>>> FITINT
 <Jan01-2013> <12:30:12>  >>>> CLSMAT
 <Jan01-2013> <12:30:18>  >>>> ORTHON
 <Jan01-2013> <12:30:20>  >>>> GENPT
 <Jan01-2013> <12:30:20>  Acc.Num.Int.=   6.000
 <Jan01-2013> <12:30:20>  Reusing previous cell geometry for gradient smoothing.
 <Jan01-2013> <12:30:21>  Block Length= 128
 <Jan01-2013> <12:30:22>  >>>> PTBAS
 <Jan01-2013> <12:34:27>  >>>> CYCLE
 <Jan01-2013> <12:34:35>    1
 <Jan01-2013> <12:35:17>    2  ErrMat   0.02145572  MaxEl -0.00426893
 <Jan01-2013> <12:35:49>    3  ErrMat   0.00998196  MaxEl -0.00194464
 <Jan01-2013> <12:36:23>    4  ErrMat   0.00901068  MaxEl  0.00143291
 <Jan01-2013> <12:37:03>    5  ErrMat   0.00345930  MaxEl -0.00071459
 <Jan01-2013> <12:37:39>    6  ErrMat   0.00081738  MaxEl  0.00012381
 <Jan01-2013> <12:38:17>    7  ErrMat   0.00029227  MaxEl -0.00002562
 <Jan01-2013> <12:38:53>    8  ErrMat   0.00006637  MaxEl  0.00000663
 <Jan01-2013> <12:39:27>    9  ErrMat   0.00001890  MaxEl -0.00000317
 <Jan01-2013> <12:40:04>   10  ErrMat   0.00000677  MaxEl  0.00000116
 <Jan01-2013> <12:40:42>   11  ErrMat   0.00000201  MaxEl -0.00000021
 <Jan01-2013> <12:41:04>  SCF converged
 <Jan01-2013> <12:41:18>   12  ErrMat   0.00000060  MaxEl  0.00000008
 <Jan01-2013> <12:41:47>  >>>> TOTEN
 <Jan01-2013> <12:42:14>  >>>> POPAN
 <Jan01-2013> <12:42:14>  >>>> DEBYE
 <Jan01-2013> <12:42:15>  >>>> AMETS
 <Jan01-2013> <12:42:16>  >>>> ENGRAD
  Coordinates in Frequency Displacement 114
    Atom         X           Y           Z   (Angstrom)
    1.Hg        0.344023   -0.348261   -0.032437
    2.O        -3.708451    0.549998    0.588594
    3.H        -4.545171    0.098717    0.028338
    4.H        -3.971160    0.819700    1.487309
    5.O        -5.520884   -0.417533   -0.757083
    6.H        -6.205364   -0.993270   -0.372275
    7.H        -5.969455    0.186710   -1.375482
    8.O        -1.474249   -0.682628    0.733600
    9.H        -2.816715    0.020106    0.614876
   10.H        -1.555550   -1.635439    0.920995
   11.O         4.181218    0.331651    0.458409
   12.H         4.835118   -0.371390    0.621896
   13.H         4.686509    1.137618    0.249380
   14.O         0.862147    2.020777    0.868703
   15.H         0.781485    2.292331    1.798571
   16.H         0.824304    2.846002    0.356301
   17.O         2.183425   -0.100234   -0.935446
   18.H         3.073920    0.062988   -0.333512
   19.H         2.374382   -0.751442   -1.625327
 <Jan01-2013> <12:47:38>  >>>> CORORT
 <Jan01-2013> <12:47:39>  >>>> FITINT
 <Jan01-2013> <12:47:42>  >>>> CLSMAT
 <Jan01-2013> <12:47:47>  >>>> ORTHON
 <Jan01-2013> <12:47:49>  >>>> GENPT
 <Jan01-2013> <12:47:49>  Acc.Num.Int.=   6.000
 <Jan01-2013> <12:47:49>  Reusing previous cell geometry for gradient smoothing.
 <Jan01-2013> <12:47:50>  Block Length= 128
 <Jan01-2013> <12:47:51>  >>>> PTBAS
 <Jan01-2013> <12:49:32>  >>>> CYCLE
 <Jan01-2013> <12:49:37>    1
 <Jan01-2013> <12:49:48>    2  ErrMat   0.00019440  MaxEl  0.00003575
 <Jan01-2013> <12:50:00>    3  ErrMat   0.00007933  MaxEl  0.00001473
 <Jan01-2013> <12:50:13>    4  ErrMat   0.00005193  MaxEl -0.00000842
 <Jan01-2013> <12:50:27>    5  ErrMat   0.00003440  MaxEl  0.00000754
 <Jan01-2013> <12:50:41>    6  ErrMat   0.00000394  MaxEl -0.00000037
 <Jan01-2013> <12:50:49>  SCF converged
 <Jan01-2013> <12:50:55>    7  ErrMat   0.00000182  MaxEl  0.00000014
 <Jan01-2013> <12:51:09>  >>>> TOTEN
 <Jan01-2013> <12:51:23>  >>>> POPAN
 <Jan01-2013> <12:51:23>  >>>> DEBYE
 <Jan01-2013> <12:51:23>  >>>> AMETS
 <Jan01-2013> <12:51:24>  >>>> ENGRAD
 <Jan01-2013> <12:53:47>  Force Constants computed
 <Jan01-2013> <12:53:47>  NORMAL TERMINATION
 <Jan01-2013> <12:53:47>  END
 <Jan01-2013> <12:53:47>  Total Bonding Energy: -43.26814942 au
