
 *******************************************************************************
 *                                                                             *
 *  -------------------------------------                                      *
 *   Amsterdam Density Functional  (ADF)         2013.01   April 2, 2013       *
 *  -------------------------------------                                      *
 *                                               Build 201304112106            *
 *                                                                             *
 *                                                                             *
 *                            =====================                            *
 *                            |                   |                            *
 *                            |     D I R A C     |                            *
 *                            |                   |                            *
 *                            =====================                            *
 *                                                                             *
 *                                                                             *
 *   Online information and documentation:  http://www.scm.com                 *
 *   E-mail:  support@scm.com   info@scm.com                                   *
 *                                                                             *
 *   Scientific publications using ADF results must be properly referenced     *
 *   See the User Manuals (or the web site) for recommended citations          *
 *   The terms and conditions of the End User License Agreement apply to       *
 *   the use of ADF, http://www.scm.com/Sales/LicAgreement.html                *
 *                                                                             *
 ****************************  x86_64_linux_intel  *****************************
 
 Licensed to: Prof. Cacier Hadad / University of Antioquia / Medellin / COLOMBIA
 SCM User ID: u15319
  
 DIRAC 2013.01  RunTime: Jan01-2013 00:00:00  Nodes: 1  Procs: 1

 Temporary files are created in /home/scratch/adf/kid_0.maHnu5

1
 HYDROGEN ATOM RELATIVISTIC, Point Nuc, A and c from libtc   
 N J RN H ZN XION ANUC CLIGHT
 5000    1100.00000000197.36710137  1.00000000  0.00000000    1.007825  0.1370360E+03
  PH   PHI     EPS        DEL        DELRVR
  0.30  0.30     2500.00  0.00001000  0.00001000
 IDIRC  NC1  NDEBU NPRIN  IPUN IRCOR IWCOR
   1   300     0     0     0     0     0
   XALPHA      XLATTER      RNUC
  0.70000000  0.00000000  0.00000000 Point Charge
   XN   XL   XJ      XE          XZ      XDELL
  1.0  0.0  0.5      -1.000       1.000     0.00000
 ICORP=  0  NPCL=  0  DEMP=0.00  PEPS=0.000000
 R(1)=  0.1000000E-08 D=  0.1005080E+01 RNUC=  0.0000000E+00
 converged at cycle   32  DENSITY AVERAGING    0.2400
  MAXIMUM ERROR IN R.V(R) IS   0.79874357E-05
 Q,EY,EV,EZ,ESUM,ETOT,RHO  0.100000E+01 -0.266614E+00 -0.619969E+00 -0.910779E+00 -0.203940E+00 -0.415998E+00  0.337036E-17


 DIRAC CALCULATION
1                    HYDROGEN ATOM RELATIVISTIC, Point Nuc, A and c from libtc


 EXCHANGE COEFFICIENT=  0.7000000           TAIL CORRECTION=  0.           NUCLEAR RADIUS=  0.000E+00
0                       ORBITAL    N    L    J     ELECTRONS     EIGENVALUE                DELTA OF EIGENV.

                          1S1/2  1.0  0.0  0.5     1.000       -0.2039397E+00                 0.2720093E-06


                                        NUCLEAR CHARGE=    1.000000
                            INTEGRAL OF CHARGE DENSITY=    1.000000
                           SUM OF THE ORBITAL ENERGIES=     -0.2039
                                          TOTAL ENERGY=     -0.4160
                                        KINETIC ENERGY=      0.4160
                             NUCLEAR ATTRACTION ENERGY=     -0.9108
                             ELECTRON REPULSION ENERGY=      0.2787
                                       EXCHANGE ENERGY=     -0.2000

 *******************************************************************************

                             D I R A C   E X I T
 NORMAL TERMINATION



 =================
 Timing Statistics
 =================
  
 Total Used :                     CPU=        0.07      System=        0.02     Elapsed=        0.09

 Calls  Section                     ( Mean, Percentage )
 ---------------------------------------------------------------------------------------------------
     2  ><      ................      0.00    0.01             0.00    0.04             0.00    0.02
     1  EXIT PROCEDURE .........      0.07   99.99             0.02   99.96             0.09   99.98


 Currently Open Files (EXIT00)
 ====================

 Unit    Access Format  Status   Type       Ident (file)
 -------------------------------------------------------
   3      SEQ    FORM   TRANSP  NORMAL      LOGFILE
                                          ( logfile )


 Buffered I/O statistics
 =======================
 Memory available:                     67108864
 Number of records fitting in memory:     16131
 Input : 100.0% of                            0  *4k bytes
 Output: 100.0% of                            0  *4k bytes
 Records from serial files evicted:           0
                    others evicted:           0
 Hash table lookups:          0 with          0 conflicts (100.00%)
(INPUT FILE)
Create H   file=/home/danian/Documents/programas/adf2013.01/atomicdata/ZORA/QZ4P/H
 XC
 GGA PBE
End
relativistic ZORA
Corepotentials t12.rel
End Input

 *******************************************************************************
 *                                                                             *
 *  -------------------------------------                                      *
 *   Amsterdam Density Functional  (ADF)         2013.01   April 2, 2013       *
 *  -------------------------------------                                      *
 *                                               Build 201304112215            *
 *                                                                             *
 *                                                                             *
 *                              =================                              *
 *                              |               |                              *
 *                              |     A D F     |                              *
 *                              |               |                              *
 *                              =================                              *
 *                                                                             *
 *                                                                             *
 *   Online information and documentation:  http://www.scm.com                 *
 *   E-mail:  support@scm.com   info@scm.com                                   *
 *                                                                             *
 *   Scientific publications using ADF results must be properly referenced     *
 *   See the User Manuals (or the web site) for recommended citations          *
 *   The terms and conditions of the End User License Agreement apply to       *
 *   the use of ADF, http://www.scm.com/Sales/LicAgreement.html                *
 *                                                                             *
 ********************  x86_64_linux_intel / platform_mpi  **********************
 
 Licensed to: Prof. Cacier Hadad / University of Antioquia / Medellin / COLOMBIA
 SCM User ID: u15319
  
 ADF 2013.01  RunTime: Jan01-2013 00:00:00  Nodes: 1  Procs: 1

 Temporary files are created in /home/scratch/adf/kid_0.8nK7tg

 Hydrogen (QZ, all electron, 5S 2P 2D)



 ===========================
 A T T A C H E D   F I L E S
 ===========================
  
 CREATE - Data File:    /home/danian/Documents/programas/adf2013.01/atomicdata/ZORA/QZ4P/H
                        Hydrogen (QZ, all electron, 5S 2P 2D)
 Core Potentials:
         file : t12.rel



 ===============================
 M O D E L   P A R A M E T E R S
 ===============================
  
 DENSITY FUNCTIONAL POTENTIAL (scf)
    LDA:                               PW92                                    == Not Default ==
    Gradient Corrections:              PBEc PBEx                               == Not Default ==

 SPIN  (restricted / unrestr.)
    Molecule:                          Restricted                               

 OTHER ASPECTS
    Relativistic Corrections:          scalar (ZORA,SAPA)                      == Not Default ==

    Nuclear Charge Density Model:      Point Charge Nuclei                                                                                                                                                                                     
    Core Treatment:                    Frozen Orbital(s)                        

    Hyperfine or Zeeman Interaction:   ---                                      



 =====================================
 S Y M M E T R Y ,   E L E C T R O N S
 =====================================
  
 Symmetry: ATOM

 Irreducible Representations, including subspecies
 -------------------------------------------------
 S
 P:x  P:y  P:z
 D:z2  D:x2-y2  D:xy  D:xz  D:yz
 F:z3  F:z  F:xyz  F:z2x  F:z2y  F:x  F:y


 Configuration of Valence Electrons
 ==================================

          Occupation Numbers
          -------------------------------------------------
 S        1
 P        0
 D        0
 F        0
          -------------------------------------------------

 Total:   1

 Net Charge: 0 (Nuclei minus Electrons)

 Preset values for MO occupations will be applied through SCF cycle no. 1000000
 Thereafter, the program will assign electrons to MOs that are spatially
 similar to the occupied MOs in a "reference" cycle ("KeepOrbitals").
 The reference cycle is always the PREVIOUS cycle: it will evolve with
 the SCF procedure.



 ================================
 (Slater-type)  F U N C T I O N S  ***  (Basis and Fit)  ***
 ================================
  

 Atom Type    1  (H)
 ==============

 Valence Basis Sets:   9
 -----------------------
   1 S    3.300000
   1 S    2.000000
   1 S    1.400000
   1 S    1.000000
   1 S    0.710000
   2 P    2.000000
   2 P    1.000000
   3 D    2.500000
   3 D    1.500000

 Charge Fitting Sets (for the computation of the Coulomb Potential):  22
 -----------------------------------------------------------------------
   1 S    6.600000
   1 S    4.620000
   1 S    3.230000
   1 S    2.260000
   1 S    1.580000
   1 S    1.100000
   1 S    0.770000
   2 S    1.000000
   2 P    5.300000
   2 P    3.870000
   2 P    2.820000
   2 P    2.060000
   2 P    1.500000
   3 D    5.800000
   3 D    4.070000
   3 D    2.850000
   3 D    2.000000
   4 F    4.500000
   4 F    3.350000
   4 F    2.500000
   5 G    5.000000
   5 G    3.000000


 BAS: List of all Elementary Cartesian Basis Functions
 =====================================================

 The numbering in the list below (to the right of the function characteristics) is referred
 to in print-outs of MO eigenvectors and Mulliken populations in the BAS representation
 (as contrasted to the SFO representation).

 Notes:
 1. The functions are characterized by a polynomial prefactor (powers of x,y,z and r) and
    an exponential decay factor alpha.
 2. Since the basis sets are specific for an atom TYPE, the individual functions occur on
    all atoms of that type.
 3. The word 'Core' in the left margin signals that it is a Core Function (CF) : not a
    degree of freedom in the valence set, but only used to ensure orthogonalization of
    the other valence basis functions on the frozen Core Orbitals.


 (power of) X  Y  Z  R     Alpha  on Atom
            ==========     =====     ==========

 H                                    1
                                  ---------------------------------------------------------------------------
            0  0  0  0     3.300      1
            0  0  0  0     2.000      2
            0  0  0  0     1.400      3
            0  0  0  0     1.000      4
            0  0  0  0     0.710      5
            1  0  0  0     2.000      6
            0  1  0  0     2.000      7
            0  0  1  0     2.000      8
            1  0  0  0     1.000      9
            0  1  0  0     1.000     10
            0  0  1  0     1.000     11
            2  0  0  0     2.500     12
            1  1  0  0     2.500     13
            1  0  1  0     2.500     14
            0  2  0  0     2.500     15
            0  1  1  0     2.500     16
            0  0  2  0     2.500     17
            2  0  0  0     1.500     18
            1  1  0  0     1.500     19
            1  0  1  0     1.500     20
            0  2  0  0     1.500     21
            0  1  1  0     1.500     22
            0  0  2  0     1.500     23

 Total number of charge fitting functions (nprimf)       107
 Total number of Cartesian basis functions (naos)         23
 Total number of Cartesian core functions  (ncos)          0



 BAS: List of all Elementary Cartesian Basis Functions
 =====================================================

 The numbering in the list below (to the right of the function characteristics) is referred
 to in print-outs of MO eigenvectors and Mulliken populations in the BAS representation
 (as contrasted to the SFO representation).

 Notes:
 1. The functions are characterized by a polynomial prefactor (powers of x,y,z and r) and
    an exponential decay factor alpha.
 2. Since the basis sets are specific for an atom TYPE, the individual functions occur on
    all atoms of that type.
 3. The word 'Core' in the left margin signals that it is a Core Function (CF) : not a
    degree of freedom in the valence set, but only used to ensure orthogonalization of
    the other valence basis functions on the frozen Core Orbitals.


 (power of) X  Y  Z  R     Alpha  on Atom
            ==========     =====     ==========

 H                                    1
                                  ---------------------------------------------------------------------------
            0  0  0  0     3.300      1
            0  0  0  0     2.000      2
            0  0  0  0     1.400      3
            0  0  0  0     1.000      4
            0  0  0  0     0.710      5
            1  0  0  0     2.000      6
            0  1  0  0     2.000      7
            0  0  1  0     2.000      8
            1  0  0  0     1.000      9
            0  1  0  0     1.000     10
            0  0  1  0     1.000     11
            2  0  0  0     2.500     12
            1  1  0  0     2.500     13
            1  0  1  0     2.500     14
            0  2  0  0     2.500     15
            0  1  1  0     2.500     16
            0  0  2  0     2.500     17
            2  0  0  0     1.500     18
            1  1  0  0     1.500     19
            1  0  1  0     1.500     20
            0  2  0  0     1.500     21
            0  1  1  0     1.500     22
            0  0  2  0     1.500     23
1
 ***************************************************************************************************



                                              ***********************
                                              *  T E C H N I C A L  *
                                              ***********************
  



 =============================================================
 P A R A L L E L I Z A T I O N  and  V E C T O R I Z A T I O N
 =============================================================
  
 Nr of parallel processes:                                1
 Maximum vector length in NumInt loops:                 128



 ===============
 I O  vs.  C P U  ***  (store numerical data on disk or recalculate)  ***
 ===============
  
 Basis functions:   recalculate when needed
 Fit functions:     recalculate when needed

 IO buffersize (Mb):                                     64.000000



 =====================
 S C F   U P D A T E S
 =====================
  
 Max. nr. of cycles:                               100
 Convergence criterion:                              0.0000000100
   secondary criterion:                              0.0000000100

 Mix parameter (when DIIS does not apply):           0.2000000000
 Special mix parameter for the first cycle:          1.0000000000


 DIIS (Direct Inversion in Iteration Space)
    Replace damping when SCF Error is below:         0.5000000000
    Apply anyway after SCF cycle:
                                                     5
    (Max.) nr. of expansion vectors:                10

    Upperbound on expansion coefficients:            5.0000000000
    (when exceeded, IterationSpace is re-built)
    2nd Upperbound on coefficients:                 25.0000000000
    (when exceeded, simple damping will be used)
 Automatic ElectronSmearing (in case of problematic SCF convergence) disabled



 =================
 P R E C I S I O N  ***  (General: NumInt, NeglectFunctionTails, ...)  ***
 =================
  

 NumInt:           Target precision:                10.0000000000
 -------           Initial precision:               10.0000000000
                   Min. precision (optimization):   10.0000000000

 Neglect Functions:          Basis functions:        0.1000000000E-11
 ------------------          Fit functions:          0.1000000000E-11



 ===========================
 L I N E A R   S C A L I N G
 ===========================
  

 Cut-off radii density fit:                        0.1000000000E-13
 Overlap cut-off criterion AO matrix elements:     0.1000000000E-11
 Cut-offs for Coulomb potential and fitted density:0.1000000000E-13
 Cut-off criterion for Coulomb multipole terms:    0.1000000000E-13
 Progressive Convergence parameter:                 0.000000000    
1
 ***************************************************************************************************



                                            ***************************
                                            *  C O M P U T A T I O N  *
                                            ***************************
  

 Number of elements of the density matrix on this node (used, total):       276       276



 ====================================================
 Numerical Integration : Voronoi Polyhedra (Te Velde)
 ====================================================
  
 General Accuracy Parameter :                         10.00

 Symmetry used in the points section:  ATOM  


 Summary of the Symmetry Unique Points:
 --------------------------------------
    Nr. of used Symmetry Operators                     1

    Points in the Atomic Spheres                      44
    Points in the Atomic Polyhedra                     0
    Points in the Outer Region                         0
    ----------------------------------------------------
    Total                                             44

    Sum of Weights                                 33854.777883

 Total nr. of points:         44
 Nr. of blocks:                1
 Block length:                44
 Nr. of dummy points:          0


 Test of Precision of the Numerical Integration Grid
 ===================================================

 Integral of the Total Core Density:                   0.00000000000000



 =====
 S C F
 =====
  

 CYCLE    1
 orbitals (Q,E):
 ---------------
 S :1...5            ( 1.00    -0.5000)  ( 0.00    -0.1102)  ( 0.00     0.2912)  ( 0.00     2.1458)
                     ( 0.00    15.1140)
 P :1...2            ( 0.00    -0.0467)  ( 0.00     1.6698)
 D :1...2            ( 0.00     0.4090)  ( 0.00     3.3827)

 CYCLE    2
 d-Pmat  mean:  0.40E-01
 imax=      4: -0.73E+00
 orbitals (Q,E):
 ---------------
 S :1...2            ( 1.00    -0.2213)  ( 0.00     0.0617)
 P :1...1            ( 0.00     0.1820)
 D :1...1            ( 0.00     0.6395)

 CYCLE    3
 d-Pmat  mean:  0.48E-02
 imax=      4:  0.66E-01
 orbitals (Q,E):
 ---------------
 S :1...2            ( 1.00    -0.2392)  ( 0.00     0.0523)
 P :1...1            ( 0.00     0.1713)
 D :1...1            ( 0.00     0.6290)

 CYCLE    4
 d-Pmat  mean:  0.47E-03
 imax=      4: -0.74E-02
 orbitals (Q,E):
 ---------------
 S :1...2            ( 1.00    -0.2386)  ( 0.00     0.0522)
 P :1...1            ( 0.00     0.1716)
 D :1...1            ( 0.00     0.6293)

 CYCLE    5
 d-Pmat  mean:  0.13E-04
 imax=      4:  0.20E-03
 orbitals (Q,E):
 ---------------
 S :1...2            ( 1.00    -0.2386)  ( 0.00     0.0522)
 P :1...1            ( 0.00     0.1716)
 D :1...1            ( 0.00     0.6293)

 CYCLE    6
 d-Pmat  mean:  0.14E-06
 imax=      4:  0.26E-05
 orbitals (Q,E):
 ---------------
 S :1...2            ( 1.00    -0.2386)  ( 0.00     0.0522)
 P :1...1            ( 0.00     0.1716)
 D :1...1            ( 0.00     0.6293)

 CYCLE    7
 d-Pmat  mean:  0.24E-08
 imax=      4:  0.39E-07
 orbitals (Q,E):
 ---------------
 S :1...2            ( 1.00    -0.2386)  ( 0.00     0.0522)
 P :1...1            ( 0.00     0.1716)
 D :1...1            ( 0.00     0.6293)

 SCF CONVERGED

 CYCLE    8
1
 ***************************************************************************************************



                                                *******************
                                                *  R E S U L T S  *
                                                *******************
  
 *** Setting up for NEW gradients in focky
 *** Using FIT density in focky

 Scaled ZORA Orbital Energies, per Irrep and Spin:
 =================================================
                        Occup              E (au)              E (eV)       Diff (eV) with prev. cycle
                        -----      --------------------        ------       --------------------------
 S
               1        1.000     -0.23860414448782E+00        -6.493              -2.15E-10
               2        0.000      0.52240780773457E-01         1.422
               3        0.000      0.50128711414823E+00        13.641
               4        0.000      0.23892611828179E+01        65.015
               5        0.000      0.15295018626306E+02       416.199
 P
               1        0.000      0.17156247999749E+00         4.668
               2        0.000      0.19364620405874E+01        52.694
 D
               1        0.000      0.62928666110103E+00        17.124
               2        0.000      0.36544214463356E+01        99.442


 Partially Occupied:
               1 S                -0.23860414448782E+00
  
 LUMO :        2 S                 0.52240780773457E-01
  


 Orbital Energies, all Irreps
 ========================================

 Irrep        no.  (spin)   Occup              E (au)                E (eV)
 ---------------------------------------------------------------------------
 S             1             1.00       -0.23860414448782E+00        -6.4927
 S             2             0.00        0.52240780773457E-01         1.4215
 P             1             0.00        0.17156247999749E+00         4.6685
 S             3             0.00        0.50128711414823E+00        13.6407
 D             1             0.00        0.62928666110103E+00        17.1238
 P             2             0.00        0.19364620405874E+01        52.6938
 S             4             0.00        0.23892611828179E+01        65.0151
 D             2             0.00        0.36544214463356E+01        99.4419
 S             5             0.00        0.15295018626306E+02       416.1986


 All Electron Calculation, thus no Orbital Energies of the Core Orbitals are calculated



 =======================================
 M U L L I K E N   P O P U L A T I O N S
 =======================================
  
 The survey below gives for each atom:
 a) the total charge (Z minus electrons)
 b) the net spin polarization (nr of electrons spin-A minus spin-B)
 c) for each spin the atomic electron valence density (integrated) per L-value.

 Atom              Charge    Spin density          S         P         D         F
 ----              ------    ------------       ------    ------    ------    ------
 1 H               0.0000                       1.0000    0.0000    0.0000    0.0000

 Populations of individual BAS functions
 ----------------------------------------
 1 H           -0.0037  0.0405  0.0399  0.5670  0.3563  0.0000  0.0000  0.0000  0.0000  0.0000
                0.0000  0.0000  0.0000  0.0000  0.0000  0.0000  0.0000  0.0000  0.0000  0.0000
                0.0000  0.0000  0.0000

 Gross Charges per Atom (Z minus electrons)
 ==========================================
             0.0000
 Net Total:  0.00000000


 Atom-Atom Population Matrix (off-diagonal elements not doubled)
 ===============================================================

     1 :     1.0000



 =============
 Dipole Moment  ***  (Debye)  ***
 =============
  
 Vector   :         0.00000000      0.00000000      0.00000000
 Magnitude:         0.00000000

 This molecular dipole moment is calculated with analytic integration



 =========================================
 Quadrupole Moment (Buckingham convention)  ***  (a.u.)  ***
 =========================================
  
      quad-xx        quad-xy        quad-xz        quad-yy        quad-yz        quad-zz
      0.00000000     0.00000000     0.00000000     0.00000000     0.00000000     0.00000000

 This molecular quadrupole moment is calculated with analytic integration



 ===============================================================================
 Electrostatic potential at the Nuclei due to valence electrons and other nuclei
 ===============================================================================
  
         Atom                  Potential
         ----                  ---------
     1)   H                   0.94463948
 
 
 ========================
 No memory problems found
 ========================
 
 Maximum number of active allocate calls:         378
 
 *******************************************************************************

                             A D F   E X I T
 NORMAL TERMINATION



 =================
 Timing Statistics
 =================
  
 Total Used :                     CPU=        0.12      System=        0.04     Elapsed=        0.16

 Calls  Section                     ( Mean, Percentage )
 ---------------------------------------------------------------------------------------------------
     3  ><      ................      0.00    0.48             0.00    0.02             0.00    0.36
     1  INIT    ................      0.00    4.14             0.00    5.49             0.01    4.48
     1  GEOMET  ................      0.00    4.04             0.03   64.81             0.03   19.93
     1  INPUTA  ................      0.00    0.91             0.00    0.00             0.00    0.67
     1  MAINSY  ................      0.00    4.23             0.00    0.00             0.01    3.18
     1  SYMFIT  ................      0.00    0.36             0.00    0.00             0.00    0.26
     1  CORORT  ................      0.00    0.19             0.00    0.00             0.00    0.14
     1  SYMORB  ................      0.00    0.51             0.00    0.00             0.00    0.37
     1  FITINT  ................      0.00    2.25             0.00    1.36             0.00    2.01
     1  CLSMAT  ................      0.00    0.00             0.00    0.53             0.00    0.14
     1  ORTHON  ................      0.00    0.00             0.00    2.24             0.00    0.58
     1  GENPT   ................      0.00    2.99             0.00    3.82             0.01    3.20
     1  PTBAS   ................      0.00    1.36             0.00    1.11             0.00    1.29
     8  FOCKY   ................      0.01   48.92             0.00   13.29             0.01   39.58
     8  FOCKTR  ................      0.00    1.33             0.00    0.15             0.00    1.02
     8  FOCKNM  ................      0.00    0.17             0.00    0.02             0.00    0.13
     8  SDIIS   ................      0.00    1.92             0.00    0.57             0.00    1.57
     8  EMERGE  ................      0.00   11.12             0.00    4.49             0.00    9.38
     1  COREPS  ................      0.00    2.07             0.00    0.00             0.00    1.53
     1  POPAN   ................      0.00    1.37             0.00    0.00             0.00    1.01
     1  DEBYE   ................      0.00    0.27             0.00    0.00             0.00    0.20
     1  QMPOT   ................      0.00    1.74             0.00    0.00             0.00    1.29
     1  EXIT PROCEDURE .........      0.01    9.66             0.00    2.11             0.01    7.68


 Currently Open Files (EXIT00)
 ====================

 Unit    Access Format  Status   Type       Ident (file)
 -------------------------------------------------------
   3      SEQ    FORM   TRANSP  NORMAL      LOGFILE
                                          ( logfile )


 Buffered I/O statistics
 =======================
 Memory available:                     67108864
 Number of records fitting in memory:     16131
 Input :   1.3% of                         3604  *4k bytes
 Output:  10.6% of                         1855  *4k bytes
 Records from serial files evicted:           0
                    others evicted:           0
 Hash table lookups:      14887 with          0 conflicts (  0.00%)

 ***************************************************************************************************
 (LOGFILE)
 <Jan01-2013> <00:00:00>  DIRAC 2013.01  RunTime: Jan01-2013 00:00:00  Nodes: 1  Procs: 1
 <Jan01-2013> <00:00:00>  NORMAL TERMINATION
 <Jan01-2013> <00:00:00>  END
 <Jan01-2013> <00:00:00>  ADF 2013.01  RunTime: Jan01-2013 00:00:00  Nodes: 1  Procs: 1
 <Jan01-2013> <00:00:00>  Hydrogen (QZ, all electron, 5S 2P 2D)
 <Jan01-2013> <00:00:00>  RunType   : CREATE
 <Jan01-2013> <00:00:00>  Net Charge: 0 (Nuclei minus Electrons)
 <Jan01-2013> <00:00:00>  Symmetry  : ATOM
  Coordinates
    Atom         X           Y           Z   (Angstrom)
    1.H         0.000000    0.000000    0.000000
 <Jan01-2013> <00:00:00>  >>>> CORORT
 <Jan01-2013> <00:00:00>  >>>> FITINT
 <Jan01-2013> <00:00:00>  >>>> CLSMAT
 <Jan01-2013> <00:00:00>  >>>> ORTHON
 <Jan01-2013> <00:00:00>  >>>> GENPT
 <Jan01-2013> <00:00:00>  Acc.Num.Int.=  10.000
 <Jan01-2013> <00:00:00>  Block Length=  44
 <Jan01-2013> <00:00:00>  >>>> PTBAS
 <Jan01-2013> <00:00:00>  >>>> CYCLE
 <Jan01-2013> <00:00:00>    1
 <Jan01-2013> <00:00:00>    2  ErrMat   0.03803841  MaxEl  0.03078708
 <Jan01-2013> <00:00:00>    3  ErrMat   0.00916622  MaxEl -0.00901560
 <Jan01-2013> <00:00:00>    4  ErrMat   0.00035667  MaxEl  0.00031421
 <Jan01-2013> <00:00:00>    5  ErrMat   0.00000962  MaxEl -0.00000892
 <Jan01-2013> <00:00:00>    6  ErrMat   0.00000013  MaxEl  0.00000008
 <Jan01-2013> <00:00:00>    7  ErrMat   0.00000000  MaxEl  0.00000000
 <Jan01-2013> <00:00:00>  SCF converged
 <Jan01-2013> <00:00:00>    8  ErrMat   0.00000000  MaxEl  0.00000000
 <Jan01-2013> <00:00:00>   Solutions with partially occupied orbitals may not be
 <Jan01-2013> <00:00:00>   lowest in energy. You might consider lowering the
 <Jan01-2013> <00:00:00>   symmetry in the input and explicitly specifying integer
 <Jan01-2013> <00:00:00>   occupations. In that case always check that you obtain
 <Jan01-2013> <00:00:00>   an aufbau solution.
 <Jan01-2013> <00:00:00>  >>>> POPAN
 <Jan01-2013> <00:00:00>  >>>> DEBYE
 <Jan01-2013> <00:00:00>  NORMAL TERMINATION
 <Jan01-2013> <00:00:00>  END

 *******************************************************************************
 *                                                                             *
 *  -------------------------------------                                      *
 *   Amsterdam Density Functional  (ADF)         2013.01   April 2, 2013       *
 *  -------------------------------------                                      *
 *                                               Build 201304112106            *
 *                                                                             *
 *                                                                             *
 *                            =====================                            *
 *                            |                   |                            *
 *                            |     D I R A C     |                            *
 *                            |                   |                            *
 *                            =====================                            *
 *                                                                             *
 *                                                                             *
 *   Online information and documentation:  http://www.scm.com                 *
 *   E-mail:  support@scm.com   info@scm.com                                   *
 *                                                                             *
 *   Scientific publications using ADF results must be properly referenced     *
 *   See the User Manuals (or the web site) for recommended citations          *
 *   The terms and conditions of the End User License Agreement apply to       *
 *   the use of ADF, http://www.scm.com/Sales/LicAgreement.html                *
 *                                                                             *
 ****************************  x86_64_linux_intel  *****************************
 
 Licensed to: Prof. Cacier Hadad / University of Antioquia / Medellin / COLOMBIA
 SCM User ID: u15319
  
 DIRAC 2013.01  RunTime: Jan01-2013 00:00:00  Nodes: 1  Procs: 1

 Temporary files are created in /home/scratch/adf/kid_0.EP3FJq

1
 OXYGEN ATOM all electron RELATIVISTIC, Point Nuc, A and c fr
 N J RN H ZN XION ANUC CLIGHT
 5000    4100.00000000197.36710137  8.00000000  0.00000000   15.994914  0.1370360E+03
  PH   PHI     EPS        DEL        DELRVR
  0.30  0.30     2500.00  0.00001000  0.00001000
 IDIRC  NC1  NDEBU NPRIN  IPUN IRCOR IWCOR
   1   300     0     0     0     0     0
   XALPHA      XLATTER      RNUC
  0.70000000  0.00000000  0.00000000 Point Charge
   XN   XL   XJ      XE          XZ      XDELL
  1.0  0.0  0.5      -5.000       2.000     0.00000
  2.0  0.0  0.5      -1.000       2.000     0.00000
  2.0  1.0  0.5      -1.000       2.000     0.00000
  2.0  1.0  1.5      -1.000       2.000     0.00000
 ICORP=  0  NPCL=  0  DEMP=0.00  PEPS=0.000000
 R(1)=  0.1000000E-08 D=  0.1005080E+01 RNUC=  0.0000000E+00
 converged at cycle   28  DENSITY AVERAGING    0.2400
  MAXIMUM ERROR IN R.V(R) IS   0.81125670E-05
 Q,EY,EV,EZ,ESUM,ETOT,RHO  0.800000E+01 -0.101247E+02 -0.114961E+03 -0.177573E+03 -0.405053E+02 -0.743427E+02  0.414766E-14


 DIRAC CALCULATION
1                    OXYGEN ATOM all electron RELATIVISTIC, Point Nuc, A and c from libtc


 EXCHANGE COEFFICIENT=  0.7000000           TAIL CORRECTION=  0.           NUCLEAR RADIUS=  0.000E+00
0                       ORBITAL    N    L    J     ELECTRONS     EIGENVALUE                DELTA OF EIGENV.

                          1S1/2  1.0  0.0  0.5     2.000       -0.1880014E+02                 0.7264359E-06
                          2S1/2  2.0  0.0  0.5     2.000       -0.8412236E+00                 0.5932752E-05
                          2P1/2  2.0  1.0  0.5     2.000       -0.3063203E+00                 0.5998471E-05
                          2P3/2  2.0  1.0  1.5     2.000       -0.3049609E+00                 0.5986971E-05


                                        NUCLEAR CHARGE=    8.000000
                            INTEGRAL OF CHARGE DENSITY=    8.000000
                           SUM OF THE ORBITAL ENERGIES=    -40.5053
                                          TOTAL ENERGY=    -74.3427
                                        KINETIC ENERGY=     74.4552
                             NUCLEAR ATTRACTION ENERGY=   -177.5730
                             ELECTRON REPULSION ENERGY=     36.3686
                                       EXCHANGE ENERGY=     -7.5935

 *******************************************************************************

                             D I R A C   E X I T
 NORMAL TERMINATION



 =================
 Timing Statistics
 =================
  
 Total Used :                     CPU=        0.10      System=        0.03     Elapsed=        0.13

 Calls  Section                     ( Mean, Percentage )
 ---------------------------------------------------------------------------------------------------
     2  ><      ................      0.00    0.00             0.00    0.03             0.00    0.01
     1  EXIT PROCEDURE .........      0.10  100.00             0.03   99.97             0.13   99.99


 Currently Open Files (EXIT00)
 ====================

 Unit    Access Format  Status   Type       Ident (file)
 -------------------------------------------------------
   3      SEQ    FORM   TRANSP  NORMAL      LOGFILE
                                          ( logfile )


 Buffered I/O statistics
 =======================
 Memory available:                     67108864
 Number of records fitting in memory:     16131
 Input : 100.0% of                            0  *4k bytes
 Output: 100.0% of                            0  *4k bytes
 Records from serial files evicted:           0
                    others evicted:           0
 Hash table lookups:          0 with          0 conflicts (100.00%)
(INPUT FILE)
Create O   file=/home/danian/Documents/programas/adf2013.01/atomicdata/ZORA/QZ4P/O
 XC
 GGA PBE
End
relativistic ZORA
Corepotentials t12.rel
End Input

 *******************************************************************************
 *                                                                             *
 *  -------------------------------------                                      *
 *   Amsterdam Density Functional  (ADF)         2013.01   April 2, 2013       *
 *  -------------------------------------                                      *
 *                                               Build 201304112215            *
 *                                                                             *
 *                                                                             *
 *                              =================                              *
 *                              |               |                              *
 *                              |     A D F     |                              *
 *                              |               |                              *
 *                              =================                              *
 *                                                                             *
 *                                                                             *
 *   Online information and documentation:  http://www.scm.com                 *
 *   E-mail:  support@scm.com   info@scm.com                                   *
 *                                                                             *
 *   Scientific publications using ADF results must be properly referenced     *
 *   See the User Manuals (or the web site) for recommended citations          *
 *   The terms and conditions of the End User License Agreement apply to       *
 *   the use of ADF, http://www.scm.com/Sales/LicAgreement.html                *
 *                                                                             *
 ********************  x86_64_linux_intel / platform_mpi  **********************
 
 Licensed to: Prof. Cacier Hadad / University of Antioquia / Medellin / COLOMBIA
 SCM User ID: u15319
  
 ADF 2013.01  RunTime: Jan01-2013 00:00:00  Nodes: 1  Procs: 1

 Temporary files are created in /home/scratch/adf/kid_0.hg5GdE

 Oxygen (QZ, all electron, 8S 4P 2D 2F)



 ===========================
 A T T A C H E D   F I L E S
 ===========================
  
 CREATE - Data File:    /home/danian/Documents/programas/adf2013.01/atomicdata/ZORA/QZ4P/O
                        Oxygen (QZ, all electron, 8S 4P 2D 2F)
 Core Potentials:
         file : t12.rel



 ===============================
 M O D E L   P A R A M E T E R S
 ===============================
  
 DENSITY FUNCTIONAL POTENTIAL (scf)
    LDA:                               PW92                                    == Not Default ==
    Gradient Corrections:              PBEc PBEx                               == Not Default ==

 SPIN  (restricted / unrestr.)
    Molecule:                          Restricted                               

 OTHER ASPECTS
    Relativistic Corrections:          scalar (ZORA,SAPA)                      == Not Default ==

    Nuclear Charge Density Model:      Point Charge Nuclei                                                                                                                                                                                     
    Core Treatment:                    Frozen Orbital(s)                        

    Hyperfine or Zeeman Interaction:   ---                                      



 =====================================
 S Y M M E T R Y ,   E L E C T R O N S
 =====================================
  
 Symmetry: ATOM

 Irreducible Representations, including subspecies
 -------------------------------------------------
 S
 P:x  P:y  P:z
 D:z2  D:x2-y2  D:xy  D:xz  D:yz
 F:z3  F:z  F:xyz  F:z2x  F:z2y  F:x  F:y


 Configuration of Valence Electrons
 ==================================

          Occupation Numbers
          -------------------------------------------------
 S        2*2
 P        4
 D        0
 F        0
          -------------------------------------------------

 Total:   8

 Net Charge: 0 (Nuclei minus Electrons)

 Preset values for MO occupations will be applied through SCF cycle no. 1000000
 Thereafter, the program will assign electrons to MOs that are spatially
 similar to the occupied MOs in a "reference" cycle ("KeepOrbitals").
 The reference cycle is always the PREVIOUS cycle: it will evolve with
 the SCF procedure.



 ================================
 (Slater-type)  F U N C T I O N S  ***  (Basis and Fit)  ***
 ================================
  

 Atom Type    1  (O)
 ==============

 Valence Basis Sets:  16
 -----------------------
   1 S   14.800000
   1 S    8.750000
   1 S    6.650000
   2 S    7.100000
   2 S    3.200000
   2 S    2.050000
   2 S    1.500000
   2 S    0.750000
   2 P    5.700000
   2 P    3.050000
   2 P    1.650000
   2 P    1.000000
   3 D    2.500000
   3 D    1.500000
   4 F    4.000000
   4 F    2.000000

 Charge Fitting Sets (for the computation of the Coulomb Potential):  37
 -----------------------------------------------------------------------
   1 S   29.600000
   1 S   22.760000
   1 S   17.500000
   1 S   11.580000
   2 S   14.160000
   2 S   10.290000
   2 S    7.480000
   2 S    5.430000
   3 S    5.780000
   3 S    4.410000
   3 S    3.370000
   3 S    2.570000
   3 S    1.960000
   3 S    1.500000
   2 P   14.450000
   2 P    9.770000
   2 P    6.610000
   3 P    6.560000
   3 P    4.710000
   3 P    3.390000
   3 P    2.430000
   3 P    1.750000
   3 D   11.400000
   3 D    7.640000
   3 D    5.120000
   4 D    4.550000
   4 D    3.200000
   4 D    2.250000
   4 F   12.750000
   4 F    8.120000
   4 F    5.170000
   5 F    4.130000
   5 F    2.750000
   5 G    9.700000
   5 G    6.560000
   5 G    4.440000
   5 G    3.000000


 BAS: List of all Elementary Cartesian Basis Functions
 =====================================================

 The numbering in the list below (to the right of the function characteristics) is referred
 to in print-outs of MO eigenvectors and Mulliken populations in the BAS representation
 (as contrasted to the SFO representation).

 Notes:
 1. The functions are characterized by a polynomial prefactor (powers of x,y,z and r) and
    an exponential decay factor alpha.
 2. Since the basis sets are specific for an atom TYPE, the individual functions occur on
    all atoms of that type.
 3. The word 'Core' in the left margin signals that it is a Core Function (CF) : not a
    degree of freedom in the valence set, but only used to ensure orthogonalization of
    the other valence basis functions on the frozen Core Orbitals.


 (power of) X  Y  Z  R     Alpha  on Atom
            ==========     =====     ==========

 O                                    1
                                  ---------------------------------------------------------------------------
            0  0  0  0    14.800      1
            0  0  0  0     8.750      2
            0  0  0  0     6.650      3
            0  0  0  1     7.100      4
            0  0  0  1     3.200      5
            0  0  0  1     2.050      6
            0  0  0  1     1.500      7
            0  0  0  1     0.750      8
            1  0  0  0     5.700      9
            0  1  0  0     5.700     10
            0  0  1  0     5.700     11
            1  0  0  0     3.050     12
            0  1  0  0     3.050     13
            0  0  1  0     3.050     14
            1  0  0  0     1.650     15
            0  1  0  0     1.650     16
            0  0  1  0     1.650     17
            1  0  0  0     1.000     18
            0  1  0  0     1.000     19
            0  0  1  0     1.000     20
            2  0  0  0     2.500     21
            1  1  0  0     2.500     22
            1  0  1  0     2.500     23
            0  2  0  0     2.500     24
            0  1  1  0     2.500     25
            0  0  2  0     2.500     26
            2  0  0  0     1.500     27
            1  1  0  0     1.500     28
            1  0  1  0     1.500     29
            0  2  0  0     1.500     30
            0  1  1  0     1.500     31
            0  0  2  0     1.500     32
            3  0  0  0     4.000     33
            2  1  0  0     4.000     34
            2  0  1  0     4.000     35
            1  2  0  0     4.000     36
            1  1  1  0     4.000     37
            1  0  2  0     4.000     38
            0  3  0  0     4.000     39
            0  2  1  0     4.000     40
            0  1  2  0     4.000     41
            0  0  3  0     4.000     42
            3  0  0  0     2.000     43
            2  1  0  0     2.000     44
            2  0  1  0     2.000     45
            1  2  0  0     2.000     46
            1  1  1  0     2.000     47
            1  0  2  0     2.000     48
            0  3  0  0     2.000     49
            0  2  1  0     2.000     50
            0  1  2  0     2.000     51
            0  0  3  0     2.000     52

 Total number of charge fitting functions (nprimf)       184
 Total number of Cartesian basis functions (naos)         52
 Total number of Cartesian core functions  (ncos)          0



 BAS: List of all Elementary Cartesian Basis Functions
 =====================================================

 The numbering in the list below (to the right of the function characteristics) is referred
 to in print-outs of MO eigenvectors and Mulliken populations in the BAS representation
 (as contrasted to the SFO representation).

 Notes:
 1. The functions are characterized by a polynomial prefactor (powers of x,y,z and r) and
    an exponential decay factor alpha.
 2. Since the basis sets are specific for an atom TYPE, the individual functions occur on
    all atoms of that type.
 3. The word 'Core' in the left margin signals that it is a Core Function (CF) : not a
    degree of freedom in the valence set, but only used to ensure orthogonalization of
    the other valence basis functions on the frozen Core Orbitals.


 (power of) X  Y  Z  R     Alpha  on Atom
            ==========     =====     ==========

 O                                    1
                                  ---------------------------------------------------------------------------
            0  0  0  0    14.800      1
            0  0  0  0     8.750      2
            0  0  0  0     6.650      3
            0  0  0  1     7.100      4
            0  0  0  1     3.200      5
            0  0  0  1     2.050      6
            0  0  0  1     1.500      7
            0  0  0  1     0.750      8
            1  0  0  0     5.700      9
            0  1  0  0     5.700     10
            0  0  1  0     5.700     11
            1  0  0  0     3.050     12
            0  1  0  0     3.050     13
            0  0  1  0     3.050     14
            1  0  0  0     1.650     15
            0  1  0  0     1.650     16
            0  0  1  0     1.650     17
            1  0  0  0     1.000     18
            0  1  0  0     1.000     19
            0  0  1  0     1.000     20
            2  0  0  0     2.500     21
            1  1  0  0     2.500     22
            1  0  1  0     2.500     23
            0  2  0  0     2.500     24
            0  1  1  0     2.500     25
            0  0  2  0     2.500     26
            2  0  0  0     1.500     27
            1  1  0  0     1.500     28
            1  0  1  0     1.500     29
            0  2  0  0     1.500     30
            0  1  1  0     1.500     31
            0  0  2  0     1.500     32
            3  0  0  0     4.000     33
            2  1  0  0     4.000     34
            2  0  1  0     4.000     35
            1  2  0  0     4.000     36
            1  1  1  0     4.000     37
            1  0  2  0     4.000     38
            0  3  0  0     4.000     39
            0  2  1  0     4.000     40
            0  1  2  0     4.000     41
            0  0  3  0     4.000     42
            3  0  0  0     2.000     43
            2  1  0  0     2.000     44
            2  0  1  0     2.000     45
            1  2  0  0     2.000     46
            1  1  1  0     2.000     47
            1  0  2  0     2.000     48
            0  3  0  0     2.000     49
            0  2  1  0     2.000     50
            0  1  2  0     2.000     51
            0  0  3  0     2.000     52
1
 ***************************************************************************************************



                                              ***********************
                                              *  T E C H N I C A L  *
                                              ***********************
  



 =============================================================
 P A R A L L E L I Z A T I O N  and  V E C T O R I Z A T I O N
 =============================================================
  
 Nr of parallel processes:                                1
 Maximum vector length in NumInt loops:                 128



 ===============
 I O  vs.  C P U  ***  (store numerical data on disk or recalculate)  ***
 ===============
  
 Basis functions:   recalculate when needed
 Fit functions:     recalculate when needed

 IO buffersize (Mb):                                     64.000000



 =====================
 S C F   U P D A T E S
 =====================
  
 Max. nr. of cycles:                               100
 Convergence criterion:                              0.0000000100
   secondary criterion:                              0.0000000100

 Mix parameter (when DIIS does not apply):           0.2000000000
 Special mix parameter for the first cycle:          1.0000000000


 DIIS (Direct Inversion in Iteration Space)
    Replace damping when SCF Error is below:         0.5000000000
    Apply anyway after SCF cycle:
                                                     5
    (Max.) nr. of expansion vectors:                10

    Upperbound on expansion coefficients:            5.0000000000
    (when exceeded, IterationSpace is re-built)
    2nd Upperbound on coefficients:                 25.0000000000
    (when exceeded, simple damping will be used)
 Automatic ElectronSmearing (in case of problematic SCF convergence) disabled



 =================
 P R E C I S I O N  ***  (General: NumInt, NeglectFunctionTails, ...)  ***
 =================
  

 NumInt:           Target precision:                10.0000000000
 -------           Initial precision:               10.0000000000
                   Min. precision (optimization):   10.0000000000

 Neglect Functions:          Basis functions:        0.1000000000E-11
 ------------------          Fit functions:          0.1000000000E-11



 ===========================
 L I N E A R   S C A L I N G
 ===========================
  

 Cut-off radii density fit:                        0.1000000000E-13
 Overlap cut-off criterion AO matrix elements:     0.1000000000E-11
 Cut-offs for Coulomb potential and fitted density:0.1000000000E-13
 Cut-off criterion for Coulomb multipole terms:    0.1000000000E-13
 Progressive Convergence parameter:                 0.000000000    
1
 ***************************************************************************************************



                                            ***************************
                                            *  C O M P U T A T I O N  *
                                            ***************************
  

 Number of elements of the density matrix on this node (used, total):      1378      1378



 ====================================================
 Numerical Integration : Voronoi Polyhedra (Te Velde)
 ====================================================
  
 General Accuracy Parameter :                         10.00

 Symmetry used in the points section:  ATOM  


 Summary of the Symmetry Unique Points:
 --------------------------------------
    Nr. of used Symmetry Operators                     1

    Points in the Atomic Spheres                      61
    Points in the Atomic Polyhedra                     0
    Points in the Outer Region                         0
    ----------------------------------------------------
    Total                                             61

    Sum of Weights                                 58501.056183

 Total nr. of points:         61
 Nr. of blocks:                1
 Block length:                61
 Nr. of dummy points:          0


 Test of Precision of the Numerical Integration Grid
 ===================================================

 Integral of the Total Core Density:                   0.00000000000000



 =====
 S C F
 =====
  

 CYCLE    1
 orbitals (Q,E):
 ---------------
 S :1...8            ( 2.00   -32.0159)  ( 2.00    -8.0044)  ( 0.00    -3.5574)  ( 0.00    -1.9901)
                     ( 0.00    -1.2515)  ( 0.00     4.1058)  ( 0.00    41.2206)  ( 0.00   308.5800)
 P :1...4            ( 4.00    -7.9758)  ( 0.00    -3.5116)  ( 0.00    -1.8856)  ( 0.00     3.1956)
 D :1...2            ( 0.00    -3.5495)  ( 0.00    -1.9917)
 F :1...2            ( 0.00    -1.9999)  ( 0.00     1.0590)

 CYCLE    2
 d-Pmat  mean:  0.11E+01
 imax=      3: -0.25E+02
 orbitals (Q,E):
 ---------------
 S :1...3            ( 2.00   -14.5566)  ( 2.00    -0.0356)  ( 0.00     0.1667)
 P :1...2            ( 4.00     0.2048)  ( 0.00     0.7903)
 D :1...1            ( 0.00     0.7381)
 F :1...1            ( 0.00     1.6042)

 CYCLE    3
 d-Pmat  mean:  0.30E+00
 imax=     20: -0.24E+01
 orbitals (Q,E):
 ---------------
 S :1...3            ( 2.00   -16.2388)  ( 2.00    -0.4301)  ( 0.00     0.0620)
 P :1...2            ( 4.00     0.0108)  ( 0.00     0.4058)
 D :1...1            ( 0.00     0.5775)
 F :1...1            ( 0.00     1.4155)

 CYCLE    4
 d-Pmat  mean:  0.10E+00
 imax=     20: -0.11E+01
 orbitals (Q,E):
 ---------------
 S :1...3            ( 2.00   -17.2725)  ( 2.00    -0.6986)  ( 0.00     0.0275)
 P :1...2            ( 4.00    -0.1717)  ( 0.00     0.2612)
 D :1...1            ( 0.00     0.5085)
 F :1...1            ( 0.00     1.3362)

 CYCLE    5
 d-Pmat  mean:  0.56E-01
 imax=      3:  0.70E+00
 orbitals (Q,E):
 ---------------
 S :1...3            ( 2.00   -18.8741)  ( 2.00    -0.8425)  ( 0.00     0.0251)
 P :1...2            ( 4.00    -0.2957)  ( 0.00     0.2201)
 D :1...1            ( 0.00     0.5505)
 F :1...1            ( 0.00     1.3859)

 CYCLE    6
 d-Pmat  mean:  0.57E-02
 imax=      2:  0.75E-01
 orbitals (Q,E):
 ---------------
 S :1...3            ( 2.00   -18.9263)  ( 2.00    -0.8875)  ( 0.00     0.0144)
 P :1...2            ( 4.00    -0.3386)  ( 0.00     0.1983)
 D :1...1            ( 0.00     0.5241)
 F :1...1            ( 0.00     1.3583)

 CYCLE    7
 d-Pmat  mean:  0.80E-03
 imax=      6: -0.45E-02
 orbitals (Q,E):
 ---------------
 S :1...3            ( 2.00   -18.9106)  ( 2.00    -0.8796)  ( 0.00     0.0160)
 P :1...2            ( 4.00    -0.3310)  ( 0.00     0.2007)
 D :1...1            ( 0.00     0.5265)
 F :1...1            ( 0.00     1.3609)

 CYCLE    8
 d-Pmat  mean:  0.91E-04
 imax=      6:  0.77E-03
 orbitals (Q,E):
 ---------------
 S :1...3            ( 2.00   -18.9122)  ( 2.00    -0.8804)  ( 0.00     0.0159)
 P :1...2            ( 4.00    -0.3317)  ( 0.00     0.2005)
 D :1...1            ( 0.00     0.5262)
 F :1...1            ( 0.00     1.3606)

 CYCLE    9
 d-Pmat  mean:  0.72E-06
 imax=      2: -0.12E-04
 orbitals (Q,E):
 ---------------
 S :1...3            ( 2.00   -18.9122)  ( 2.00    -0.8804)  ( 0.00     0.0159)
 P :1...2            ( 4.00    -0.3317)  ( 0.00     0.2005)
 D :1...1            ( 0.00     0.5262)
 F :1...1            ( 0.00     1.3606)

 CYCLE   10
 d-Pmat  mean:  0.12E-07
 imax=      6: -0.16E-06
 orbitals (Q,E):
 ---------------
 S :1...3            ( 2.00   -18.9122)  ( 2.00    -0.8804)  ( 0.00     0.0159)
 P :1...2            ( 4.00    -0.3317)  ( 0.00     0.2005)
 D :1...1            ( 0.00     0.5262)
 F :1...1            ( 0.00     1.3606)

 CYCLE   11
 d-Pmat  mean:  0.14E-09
 imax=      6: -0.15E-08
 orbitals (Q,E):
 ---------------
 S :1...3            ( 2.00   -18.9122)  ( 2.00    -0.8804)  ( 0.00     0.0159)
 P :1...2            ( 4.00    -0.3317)  ( 0.00     0.2005)
 D :1...1            ( 0.00     0.5262)
 F :1...1            ( 0.00     1.3606)

 SCF CONVERGED

 CYCLE   12
1
 ***************************************************************************************************



                                                *******************
                                                *  R E S U L T S  *
                                                *******************
  
 *** Setting up for NEW gradients in focky
 *** Using FIT density in focky

 Scaled ZORA Orbital Energies, per Irrep and Spin:
 =================================================
                        Occup              E (au)              E (eV)       Diff (eV) with prev. cycle
                        -----      --------------------        ------       --------------------------
 S
               1        2.000     -0.18912163588779E+02      -514.626               4.75E-09
               2        2.000     -0.88042536023933E+00       -23.958               4.99E-09
               3        0.000      0.15917244304958E-01         0.433
               4        0.000      0.47157190212927E+00        12.832
               5        0.000      0.25092163553859E+01        68.279
               6        0.000      0.11901959077277E+02       323.869
               7        0.000      0.52347890775244E+02      1424.459
               8        0.000      0.32159312652146E+03      8750.994
 P
               1        4.000     -0.33172720131057E+00        -9.027               4.92E-09
               2        0.000      0.20052917663188E+00         5.457
               3        0.000      0.16594440945136E+01        45.156
               4        0.000      0.12142335979722E+02       330.410
 D
               1        0.000      0.52623159774356E+00        14.319
               2        0.000      0.24055384910366E+01        65.458
 F
               1        0.000      0.13606224428469E+01        37.024
               2        0.000      0.70188296926901E+01       190.992


 Partially Occupied:
               1 P                -0.33172720131057E+00
  
 HOMO :        2 S                -0.88042536023933E+00
 LUMO :        3 S                 0.15917244304958E-01
  


 Orbital Energies, all Irreps
 ========================================

 Irrep        no.  (spin)   Occup              E (au)                E (eV)
 ---------------------------------------------------------------------------
 S             1             2.00       -0.18912163588779E+02      -514.6262
 S             2             2.00       -0.88042536023933E+00       -23.9576
 P             1             4.00       -0.33172720131057E+00        -9.0268
 S             3             0.00        0.15917244304958E-01         0.4331
 P             2             0.00        0.20052917663188E+00         5.4567
 S             4             0.00        0.47157190212927E+00        12.8321
 D             1             0.00        0.52623159774356E+00        14.3195
 F             1             0.00        0.13606224428469E+01        37.0244
 P             3             0.00        0.16594440945136E+01        45.1558
 D             2             0.00        0.24055384910366E+01        65.4580
 S             5             0.00        0.25092163553859E+01        68.2793
 F             2             0.00        0.70188296926901E+01       190.9921
 S             6             0.00        0.11901959077277E+02       323.8688
 P             4             0.00        0.12142335979722E+02       330.4098
 S             7             0.00        0.52347890775244E+02      1424.4586
 S             8             0.00        0.32159312652146E+03      8750.9942


 All Electron Calculation, thus no Orbital Energies of the Core Orbitals are calculated



 =======================================
 M U L L I K E N   P O P U L A T I O N S
 =======================================
  
 The survey below gives for each atom:
 a) the total charge (Z minus electrons)
 b) the net spin polarization (nr of electrons spin-A minus spin-B)
 c) for each spin the atomic electron valence density (integrated) per L-value.

 Atom              Charge    Spin density          S         P         D         F
 ----              ------    ------------       ------    ------    ------    ------
 1 O               0.0000                       4.0000    4.0000    0.0000    0.0000

 Populations of individual BAS functions
 ----------------------------------------
 1 O            0.0407  0.7707  1.2791 -0.1485  0.7639  1.0393  0.2537  0.0009  0.0450  0.0450
                0.0450  0.4807  0.4807  0.4807  0.6422  0.6422  0.6422  0.1654  0.1654  0.1654
                0.0000  0.0000  0.0000  0.0000  0.0000  0.0000  0.0000  0.0000  0.0000  0.0000
                0.0000  0.0000  0.0000  0.0000  0.0000  0.0000  0.0000  0.0000  0.0000  0.0000
                0.0000  0.0000  0.0000  0.0000  0.0000  0.0000  0.0000  0.0000  0.0000  0.0000
                0.0000  0.0000

 Gross Charges per Atom (Z minus electrons)
 ==========================================
             0.0000
 Net Total:  0.00000000


 Atom-Atom Population Matrix (off-diagonal elements not doubled)
 ===============================================================

     1 :     8.0000



 =============
 Dipole Moment  ***  (Debye)  ***
 =============
  
 Vector   :         0.00000000      0.00000000      0.00000000
 Magnitude:         0.00000000

 This molecular dipole moment is calculated with analytic integration



 =========================================
 Quadrupole Moment (Buckingham convention)  ***  (a.u.)  ***
 =========================================
  
      quad-xx        quad-xy        quad-xz        quad-yy        quad-yz        quad-zz
      0.00000000     0.00000000     0.00000000     0.00000000     0.00000000     0.00000000

 This molecular quadrupole moment is calculated with analytic integration



 ===============================================================================
 Electrostatic potential at the Nuclei due to valence electrons and other nuclei
 ===============================================================================
  
         Atom                  Potential
         ----                  ---------
     1)   O                  22.26490088
 
 
 ========================
 No memory problems found
 ========================
 
 Maximum number of active allocate calls:         476
 
 *******************************************************************************

                             A D F   E X I T
 NORMAL TERMINATION



 =================
 Timing Statistics
 =================
  
 Total Used :                     CPU=        0.17      System=        0.05     Elapsed=        0.22

 Calls  Section                     ( Mean, Percentage )
 ---------------------------------------------------------------------------------------------------
     3  ><      ................      0.00    0.00             0.00    1.09             0.00    0.25
     1  INIT    ................      0.01    4.89             0.00    0.00             0.01    3.84
     1  GEOMET  ................      0.00    2.41             0.03   52.97             0.03   13.63
     1  INPUTA  ................      0.00    0.00             0.00    2.44             0.00    0.54
     1  MAINSY  ................      0.00    2.02             0.00    3.82             0.01    2.42
     1  SYMFIT  ................      0.00    0.27             0.00    0.00             0.00    0.21
     1  CORORT  ................      0.00    0.00             0.00    0.78             0.00    0.17
     1  SYMORB  ................      0.00    0.00             0.00    2.92             0.00    0.64
     1  FITINT  ................      0.01    3.29             0.00    3.67             0.01    3.37
     1  CLSMAT  ................      0.00    0.18             0.00    0.00             0.00    0.14
     1  ORTHON  ................      0.00    1.01             0.00    0.00             0.00    0.79
     1  GENPT   ................      0.01    4.04             0.00    0.48             0.01    3.25
     1  PTBAS   ................      0.00    1.13             0.00    0.00             0.00    0.88
    12  FOCKY   ................      0.01   50.24             0.00   13.58             0.01   42.10
    12  FOCKTR  ................      0.00    1.50             0.00    0.49             0.00    1.27
    12  FOCKNM  ................      0.00    0.16             0.00    0.06             0.00    0.13
    12  SDIIS   ................      0.00    1.90             0.00    0.74             0.00    1.64
    12  EMERGE  ................      0.00   18.59             0.00    1.94             0.00   14.89
     1  COREPS  ................      0.00    0.97             0.00    3.39             0.00    1.50
     1  POPAN   ................      0.00    0.27             0.00    3.25             0.00    0.92
     1  DEBYE   ................      0.00    0.22             0.00    0.24             0.00    0.23
     1  QMPOT   ................      0.00    0.00             0.00    5.97             0.00    1.32
     1  EXIT PROCEDURE .........      0.01    6.92             0.00    2.19             0.01    5.87


 Currently Open Files (EXIT00)
 ====================

 Unit    Access Format  Status   Type       Ident (file)
 -------------------------------------------------------
   3      SEQ    FORM   TRANSP  NORMAL      LOGFILE
                                          ( logfile )


 Buffered I/O statistics
 =======================
 Memory available:                     67108864
 Number of records fitting in memory:     16131
 Input :   0.9% of                         6430  *4k bytes
 Output:   8.3% of                         2767  *4k bytes
 Records from serial files evicted:           0
                    others evicted:           0
 Hash table lookups:      25047 with          0 conflicts (  0.00%)

 ***************************************************************************************************
 (LOGFILE)
 <Jan01-2013> <00:00:00>  DIRAC 2013.01  RunTime: Jan01-2013 00:00:00  Nodes: 1  Procs: 1
 <Jan01-2013> <00:00:00>  NORMAL TERMINATION
 <Jan01-2013> <00:00:00>  END
 <Jan01-2013> <00:00:00>  ADF 2013.01  RunTime: Jan01-2013 00:00:00  Nodes: 1  Procs: 1
 <Jan01-2013> <00:00:00>  Hydrogen (QZ, all electron, 5S 2P 2D)
 <Jan01-2013> <00:00:00>  RunType   : CREATE
 <Jan01-2013> <00:00:00>  Net Charge: 0 (Nuclei minus Electrons)
 <Jan01-2013> <00:00:00>  Symmetry  : ATOM
  Coordinates
    Atom         X           Y           Z   (Angstrom)
    1.H         0.000000    0.000000    0.000000
 <Jan01-2013> <00:00:00>  >>>> CORORT
 <Jan01-2013> <00:00:00>  >>>> FITINT
 <Jan01-2013> <00:00:00>  >>>> CLSMAT
 <Jan01-2013> <00:00:00>  >>>> ORTHON
 <Jan01-2013> <00:00:00>  >>>> GENPT
 <Jan01-2013> <00:00:00>  Acc.Num.Int.=  10.000
 <Jan01-2013> <00:00:00>  Block Length=  44
 <Jan01-2013> <00:00:00>  >>>> PTBAS
 <Jan01-2013> <00:00:00>  >>>> CYCLE
 <Jan01-2013> <00:00:00>    1
 <Jan01-2013> <00:00:00>    2  ErrMat   0.03803841  MaxEl  0.03078708
 <Jan01-2013> <00:00:00>    3  ErrMat   0.00916622  MaxEl -0.00901560
 <Jan01-2013> <00:00:00>    4  ErrMat   0.00035667  MaxEl  0.00031421
 <Jan01-2013> <00:00:00>    5  ErrMat   0.00000962  MaxEl -0.00000892
 <Jan01-2013> <00:00:00>    6  ErrMat   0.00000013  MaxEl  0.00000008
 <Jan01-2013> <00:00:00>    7  ErrMat   0.00000000  MaxEl  0.00000000
 <Jan01-2013> <00:00:00>  SCF converged
 <Jan01-2013> <00:00:00>    8  ErrMat   0.00000000  MaxEl  0.00000000
 <Jan01-2013> <00:00:00>   Solutions with partially occupied orbitals may not be
 <Jan01-2013> <00:00:00>   lowest in energy. You might consider lowering the
 <Jan01-2013> <00:00:00>   symmetry in the input and explicitly specifying integer
 <Jan01-2013> <00:00:00>   occupations. In that case always check that you obtain
 <Jan01-2013> <00:00:00>   an aufbau solution.
 <Jan01-2013> <00:00:00>  >>>> POPAN
 <Jan01-2013> <00:00:00>  >>>> DEBYE
 <Jan01-2013> <00:00:00>  NORMAL TERMINATION
 <Jan01-2013> <00:00:00>  END
 <Jan01-2013> <00:00:00>  DIRAC 2013.01  RunTime: Jan01-2013 00:00:00  Nodes: 1  Procs: 1
 <Jan01-2013> <00:00:00>  NORMAL TERMINATION
 <Jan01-2013> <00:00:00>  END
 <Jan01-2013> <00:00:00>  ADF 2013.01  RunTime: Jan01-2013 00:00:00  Nodes: 1  Procs: 1
 <Jan01-2013> <00:00:00>  Oxygen (QZ, all electron, 8S 4P 2D 2F)
 <Jan01-2013> <00:00:00>  RunType   : CREATE
 <Jan01-2013> <00:00:00>  Net Charge: 0 (Nuclei minus Electrons)
 <Jan01-2013> <00:00:00>  Symmetry  : ATOM
  Coordinates
    Atom         X           Y           Z   (Angstrom)
    1.O         0.000000    0.000000    0.000000
 <Jan01-2013> <00:00:00>  >>>> CORORT
 <Jan01-2013> <00:00:00>  >>>> FITINT
 <Jan01-2013> <00:00:00>  >>>> CLSMAT
 <Jan01-2013> <00:00:00>  >>>> ORTHON
 <Jan01-2013> <00:00:00>  >>>> GENPT
 <Jan01-2013> <00:00:00>  Acc.Num.Int.=  10.000
 <Jan01-2013> <00:00:00>  Block Length=  61
 <Jan01-2013> <00:00:00>  >>>> PTBAS
 <Jan01-2013> <00:00:00>  >>>> CYCLE
 <Jan01-2013> <00:00:00>    1
 <Jan01-2013> <00:00:00>    2  ErrMat   9.74921119  MaxEl  4.13901188
 <Jan01-2013> <00:00:00>    3  ErrMat   3.70162577  MaxEl -2.91656473
 <Jan01-2013> <00:00:00>    4  ErrMat   2.94969141  MaxEl -1.91814780
 <Jan01-2013> <00:00:00>    5  ErrMat   1.88970506  MaxEl -1.07111526
 <Jan01-2013> <00:00:00>    6  ErrMat   0.04645269  MaxEl -0.01876708
 <Jan01-2013> <00:00:00>    7  ErrMat   0.02377734  MaxEl  0.01063637
 <Jan01-2013> <00:00:00>    8  ErrMat   0.00251040  MaxEl -0.00114123
 <Jan01-2013> <00:00:00>    9  ErrMat   0.00000968  MaxEl -0.00000432
 <Jan01-2013> <00:00:00>   10  ErrMat   0.00000018  MaxEl  0.00000007
 <Jan01-2013> <00:00:00>   11  ErrMat   0.00000000  MaxEl  0.00000000
 <Jan01-2013> <00:00:00>  SCF converged
 <Jan01-2013> <00:00:00>   12  ErrMat   0.00000000  MaxEl  0.00000000
 <Jan01-2013> <00:00:00>   Solutions with partially occupied orbitals may not be
 <Jan01-2013> <00:00:00>   lowest in energy. You might consider lowering the
 <Jan01-2013> <00:00:00>   symmetry in the input and explicitly specifying integer
 <Jan01-2013> <00:00:00>   occupations. In that case always check that you obtain
 <Jan01-2013> <00:00:00>   an aufbau solution.
 <Jan01-2013> <00:00:00>  >>>> POPAN
 <Jan01-2013> <00:00:00>  >>>> DEBYE
 <Jan01-2013> <00:00:00>  NORMAL TERMINATION
 <Jan01-2013> <00:00:00>  END
Platform-MPI licensed for SCM.


 Parallel Execution: Process Information
 ==============================================================================
 Rank   Node Name                              NodeID   MyNodeRank  NodeMaster
    0   parca                                     0          0          0
    1   parca                                     0          1         -1
    2   parca                                     0          2         -1
    3   parca                                     0          3         -1
 ==============================================================================


(INPUT FILE)

 TITLE Annealing ASCEC

 ATOMS
   H    -2.06026500     -1.83160600     1.43245400
   O    -2.05762300     -1.16607000     0.71840800
   H    -2.76742500     -1.46520300     -0.08543200
 END

 symmetry auto

 RELATIVISTIC Spin-Orbit ZORA

 XC
 GGA PBE
 END

 Geometry
  Frequencies
 end

 SCF
 CONVERGE 1e-6 1e-6
 ITERATION 200
 END

Fragments
H t21.H
O t21.O
End
end input

 *******************************************************************************
 *                                                                             *
 *  -------------------------------------                                      *
 *   Amsterdam Density Functional  (ADF)         2013.01   April 2, 2013       *
 *  -------------------------------------                                      *
 *                                               Build 201304112215            *
 *                                                                             *
 *                                                                             *
 *                              =================                              *
 *                              |               |                              *
 *                              |     A D F     |                              *
 *                              |               |                              *
 *                              =================                              *
 *                                                                             *
 *                                                                             *
 *   Online information and documentation:  http://www.scm.com                 *
 *   E-mail:  support@scm.com   info@scm.com                                   *
 *                                                                             *
 *   Scientific publications using ADF results must be properly referenced     *
 *   See the User Manuals (or the web site) for recommended citations          *
 *   The terms and conditions of the End User License Agreement apply to       *
 *   the use of ADF, http://www.scm.com/Sales/LicAgreement.html                *
 *                                                                             *
 ********************  x86_64_linux_intel / platform_mpi  **********************
 
 Licensed to: Prof. Cacier Hadad / University of Antioquia / Medellin / COLOMBIA
 SCM User ID: u15319
  
 ADF 2013.01  RunTime: Jan01-2013 00:00:01  Nodes: 1  Procs: 4

 Temporary files are created in /home/scratch/adf/kid_0.Ulpfhu


Communication costs MPI_COMM_WORLD:      0.679 usec per message,   0.0042 usec per 8-byte item
Communication costs for intra-node:      0.601 usec per message,   0.0061 usec per 8-byte item

 Annealing ASCEC



 ===========================
 A T T A C H E D   F I L E S
 ===========================
  



 ===============================
 M O D E L   P A R A M E T E R S
 ===============================
  
 DENSITY FUNCTIONAL POTENTIAL (scf)
    LDA:                               PW92                                    == Not Default ==
    Gradient Corrections:              PBEc PBEx                               == Not Default ==

 SPIN  (restricted / unrestr.)
    Molecule:                          Restricted                               
    Fragments:                         Restricted                               

 OTHER ASPECTS
    Relativistic Corrections:          Spin-Orbit (ZORA,SAPA)                  == Not Default ==

    Nuclear Charge Density Model:      Point Charge Nuclei                                                                                                                                                                                     
    Core Treatment:                    Frozen Orbital(s)                        

    Hyperfine or Zeeman Interaction:   ---                                      


 Fragment File(s)
 ----------------
 H:
         file : t21.H
         jobid: ADF 2013.01  RunTime: Jan01-2013 00:00:00  Nodes: 1  Procs: 1
         title: Hydrogen (QZ, all electron, 5S 2P 2D)
 O:
         file : t21.O
         jobid: ADF 2013.01  RunTime: Jan01-2013 00:00:00  Nodes: 1  Procs: 1
         title: Oxygen (QZ, all electron, 8S 4P 2D 2F)



                                        ***********************************
                                        *  R U N   T Y P E : FREQUENCIES  *
                                        ***********************************
  



 ===============
 G E O M E T R Y  ***  Planar Molecule  ***
 ===============
  

 ATOMS
 =====                            X Y Z                    CHARGE
                                (Angstrom)             Nucl     +Core       At.Mass
                       --------------------------    ----------------       -------
    1  H              -0.7099   -2.7497    0.0000      1.00      1.00        1.0078
    2  O              -1.0654   -1.8407    0.0000      8.00      8.00       15.9949
    3  H              -2.1785   -1.8656    0.0000      1.00      1.00        1.0078


 FRAGMENTS
 =========                                     Atoms in this Fragment     Cart. coord.s (Angstrom)
                                               -------------------------------------------------------
    1  H                                                 1  H           -0.7099   -2.7497    0.0000
    2  H                                                 3  H           -2.1785   -1.8656    0.0000
    3  O                                                 2  O           -1.0654   -1.8407    0.0000


 Interatomic Distance Matrix (Angstrom)
 --------------------------------------

   1)     0.000
   2)     0.976   0.000
   3)     1.714   1.113   0.000

 Min. Distance =    0.9761
 Max. Distance =    1.7141



 =====================================
 S Y M M E T R Y ,   E L E C T R O N S
 =====================================
  
 Symmetry: NOSYM

 Double Group Irreducible Representations (spinor symmetry)
 -----------------------------------------------------------
 A1/2

 *** In a FREQUENCIES run the point group symmetry is used only in the construction of the Force Matrix.
     Due to possibly symmetry-breaking displacements, the SCF calculations run in 'NOSYM', with only one
     irrep and one subspecies: A.
 (The current implementation does not use C(LIN),D(LIN) symmetries efficiently in Frequencies-runs.
 If specified they will internally be reset to NOSYM)


 Configuration of Valence Electrons
 ==================================
 ( determined in the SCF procedure )

 Total:   10

 Net Charge: 0 (Nuclei minus Electrons)

 Aufbau principle for MO occupations will be applied through SCF cycle no.      30
 Thereafter, the program will assign electrons to MOs that are spatially
 similar to the occupied MOs in a "reference" cycle ("KeepOrbitals").
 The reference cycle is always the PREVIOUS cycle: it will evolve with
 the SCF procedure.
1
 ***************************************************************************************************



[...]
 <Jan01-2013> <00:00:08>    5  ErrMat   0.00032134  MaxEl -0.00009127
 <Jan01-2013> <00:00:08>    6  ErrMat   0.00006326  MaxEl -0.00001623
 <Jan01-2013> <00:00:08>    7  ErrMat   0.00000717  MaxEl  0.00000212
 <Jan01-2013> <00:00:08>    8  ErrMat   0.00000073  MaxEl  0.00000029
 <Jan01-2013> <00:00:08>  SCF converged
 <Jan01-2013> <00:00:08>    9  ErrMat   0.00000010  MaxEl -0.00000004
 <Jan01-2013> <00:00:08>  >>>> TOTEN
 <Jan01-2013> <00:00:09>  >>>> POPAN
 <Jan01-2013> <00:00:09>  >>>> DEBYE
 <Jan01-2013> <00:00:09>  >>>> AMETS
 <Jan01-2013> <00:00:09>  >>>> ENGRAD
  Coordinates in Frequency Displacement 4
    Atom         X           Y           Z   (Angstrom)
    1.H        -0.707381   -2.741425    0.004986
    2.O        -1.065424   -1.840661    0.000000
    3.H        -2.178454   -1.865642    0.000000
 <Jan01-2013> <00:00:09>  >>>> CORORT
 <Jan01-2013> <00:00:09>  >>>> FITINT
 <Jan01-2013> <00:00:09>  >>>> CLSMAT
 <Jan01-2013> <00:00:10>  >>>> ORTHON
 <Jan01-2013> <00:00:10>  >>>> GENPT
 <Jan01-2013> <00:00:10>  Block Length= 128
 <Jan01-2013> <00:00:10>  >>>> PTBAS
 <Jan01-2013> <00:00:10>  >>>> CYCLE
 <Jan01-2013> <00:00:11>    1
 <Jan01-2013> <00:00:11>    2  ErrMat   0.00015826  MaxEl -0.00003618
 <Jan01-2013> <00:00:11>    3  ErrMat   0.00006953  MaxEl -0.00001446
 <Jan01-2013> <00:00:11>    4  ErrMat   0.00002800  MaxEl -0.00000789
 <Jan01-2013> <00:00:12>    5  ErrMat   0.00000172  MaxEl  0.00000041
 <Jan01-2013> <00:00:12>  SCF converged
 <Jan01-2013> <00:00:12>    6  ErrMat   0.00000035  MaxEl  0.00000007
 <Jan01-2013> <00:00:12>  >>>> TOTEN
 <Jan01-2013> <00:00:13>  >>>> POPAN
 <Jan01-2013> <00:00:13>  >>>> DEBYE
 <Jan01-2013> <00:00:13>  >>>> AMETS
 <Jan01-2013> <00:00:13>  >>>> ENGRAD
  Coordinates in Frequency Displacement 5
    Atom         X           Y           Z   (Angstrom)
    1.H        -0.717216   -2.744738   -0.004620
    2.O        -1.065424   -1.840661    0.000000
    3.H        -2.178454   -1.865642    0.000000
 <Jan01-2013> <00:00:13>  >>>> CORORT
 <Jan01-2013> <00:00:13>  >>>> FITINT
 <Jan01-2013> <00:00:13>  >>>> CLSMAT
 <Jan01-2013> <00:00:13>  >>>> ORTHON
 <Jan01-2013> <00:00:13>  >>>> GENPT
 <Jan01-2013> <00:00:13>  Block Length= 128
 <Jan01-2013> <00:00:13>  >>>> PTBAS
 <Jan01-2013> <00:00:13>  >>>> CYCLE
 <Jan01-2013> <00:00:13>    1
 <Jan01-2013> <00:00:14>    2  ErrMat   0.01757944  MaxEl -0.00505911
 <Jan01-2013> <00:00:14>    3  ErrMat   0.00924085  MaxEl -0.00247869
 <Jan01-2013> <00:00:14>    4  ErrMat   0.00648790  MaxEl -0.00215157
 <Jan01-2013> <00:00:14>    5  ErrMat   0.00042830  MaxEl  0.00011480
 <Jan01-2013> <00:00:14>    6  ErrMat   0.00005958  MaxEl -0.00001779
 <Jan01-2013> <00:00:14>    7  ErrMat   0.00000401  MaxEl  0.00000092
 <Jan01-2013> <00:00:14>  SCF converged
 <Jan01-2013> <00:00:14>    8  ErrMat   0.00000070  MaxEl -0.00000027
 <Jan01-2013> <00:00:14>  >>>> TOTEN
 <Jan01-2013> <00:00:14>  >>>> POPAN
 <Jan01-2013> <00:00:14>  >>>> DEBYE
 <Jan01-2013> <00:00:14>  >>>> AMETS
 <Jan01-2013> <00:00:14>  >>>> ENGRAD
  Coordinates in Frequency Displacement 6
    Atom         X           Y           Z   (Angstrom)
    1.H        -0.702548   -2.754711    0.004620
    2.O        -1.065424   -1.840661    0.000000
    3.H        -2.178454   -1.865642    0.000000
 <Jan01-2013> <00:00:15>  >>>> CORORT
 <Jan01-2013> <00:00:15>  >>>> FITINT
 <Jan01-2013> <00:00:15>  >>>> CLSMAT
 <Jan01-2013> <00:00:15>  >>>> ORTHON
 <Jan01-2013> <00:00:15>  >>>> GENPT
 <Jan01-2013> <00:00:15>  Block Length= 128
 <Jan01-2013> <00:00:15>  >>>> PTBAS
 <Jan01-2013> <00:00:15>  >>>> CYCLE
 <Jan01-2013> <00:00:15>    1
 <Jan01-2013> <00:00:15>    2  ErrMat   0.00021064  MaxEl -0.00005314
 <Jan01-2013> <00:00:15>    3  ErrMat   0.00008671  MaxEl -0.00002151
 <Jan01-2013> <00:00:16>    4  ErrMat   0.00003053  MaxEl -0.00000825
 <Jan01-2013> <00:00:16>    5  ErrMat   0.00000293  MaxEl -0.00000063
 <Jan01-2013> <00:00:16>  SCF converged
 <Jan01-2013> <00:00:16>    6  ErrMat   0.00000071  MaxEl -0.00000015
 <Jan01-2013> <00:00:16>  >>>> TOTEN
 <Jan01-2013> <00:00:16>  >>>> POPAN
 <Jan01-2013> <00:00:16>  >>>> DEBYE
 <Jan01-2013> <00:00:16>  >>>> AMETS
 <Jan01-2013> <00:00:16>  >>>> ENGRAD
  Coordinates in Frequency Displacement 7
    Atom         X           Y           Z   (Angstrom)
    1.H        -0.709882   -2.749724    0.000000
    2.O        -1.071745   -1.843162    0.007334
    3.H        -2.178454   -1.865642    0.000000
 <Jan01-2013> <00:00:17>  >>>> CORORT
 <Jan01-2013> <00:00:17>  >>>> FITINT
 <Jan01-2013> <00:00:17>  >>>> CLSMAT
 <Jan01-2013> <00:00:17>  >>>> ORTHON
 <Jan01-2013> <00:00:17>  >>>> GENPT
 <Jan01-2013> <00:00:17>  Block Length= 128
 <Jan01-2013> <00:00:17>  >>>> PTBAS
 <Jan01-2013> <00:00:17>  >>>> CYCLE
 <Jan01-2013> <00:00:17>    1
 <Jan01-2013> <00:00:17>    2  ErrMat   0.02441789  MaxEl -0.00669769
 <Jan01-2013> <00:00:17>    3  ErrMat   0.01362912  MaxEl -0.00339756
 <Jan01-2013> <00:00:17>    4  ErrMat   0.01009479  MaxEl -0.00228863
 <Jan01-2013> <00:00:17>    5  ErrMat   0.00048424  MaxEl  0.00011168
 <Jan01-2013> <00:00:17>    6  ErrMat   0.00011025  MaxEl  0.00001977
 <Jan01-2013> <00:00:17>    7  ErrMat   0.00000602  MaxEl -0.00000251
 <Jan01-2013> <00:00:17>    8  ErrMat   0.00000096  MaxEl  0.00000042
 <Jan01-2013> <00:00:18>  SCF converged
 <Jan01-2013> <00:00:18>    9  ErrMat   0.00000008  MaxEl  0.00000002
 <Jan01-2013> <00:00:18>  >>>> TOTEN
 <Jan01-2013> <00:00:18>  >>>> POPAN
 <Jan01-2013> <00:00:18>  >>>> DEBYE
 <Jan01-2013> <00:00:18>  >>>> AMETS
 <Jan01-2013> <00:00:18>  >>>> ENGRAD
  Coordinates in Frequency Displacement 8
    Atom         X           Y           Z   (Angstrom)
    1.H        -0.709882   -2.749724    0.000000
    2.O        -1.059103   -1.838159   -0.007334
    3.H        -2.178454   -1.865642    0.000000
 <Jan01-2013> <00:00:19>  >>>> CORORT
 <Jan01-2013> <00:00:19>  >>>> FITINT
 <Jan01-2013> <00:00:19>  >>>> CLSMAT
 <Jan01-2013> <00:00:19>  >>>> ORTHON
 <Jan01-2013> <00:00:19>  >>>> GENPT
 <Jan01-2013> <00:00:20>  Block Length= 128
 <Jan01-2013> <00:00:20>  >>>> PTBAS
 <Jan01-2013> <00:00:20>  >>>> CYCLE
 <Jan01-2013> <00:00:21>    1
 <Jan01-2013> <00:00:21>    2  ErrMat   0.00046848  MaxEl -0.00015381
 <Jan01-2013> <00:00:22>    3  ErrMat   0.00019381  MaxEl -0.00006037
 <Jan01-2013> <00:00:22>    4  ErrMat   0.00007016  MaxEl  0.00001882
 <Jan01-2013> <00:00:22>    5  ErrMat   0.00000761  MaxEl  0.00000182
 <Jan01-2013> <00:00:22>    6  ErrMat   0.00000150  MaxEl  0.00000033
 <Jan01-2013> <00:00:22>  SCF converged
 <Jan01-2013> <00:00:22>    7  ErrMat   0.00000016  MaxEl -0.00000006
 <Jan01-2013> <00:00:22>  >>>> TOTEN
 <Jan01-2013> <00:00:23>  >>>> POPAN
 <Jan01-2013> <00:00:23>  >>>> DEBYE
 <Jan01-2013> <00:00:23>  >>>> AMETS
 <Jan01-2013> <00:00:23>  >>>> ENGRAD
  Coordinates in Frequency Displacement 9
    Atom         X           Y           Z   (Angstrom)
    1.H        -0.709882   -2.749724    0.000000
    2.O        -1.067926   -1.848960   -0.004986
    3.H        -2.178454   -1.865642    0.000000
 <Jan01-2013> <00:00:23>  >>>> CORORT
 <Jan01-2013> <00:00:23>  >>>> FITINT
 <Jan01-2013> <00:00:23>  >>>> CLSMAT
 <Jan01-2013> <00:00:23>  >>>> ORTHON
 <Jan01-2013> <00:00:23>  >>>> GENPT
 <Jan01-2013> <00:00:23>  Block Length= 128
 <Jan01-2013> <00:00:23>  >>>> PTBAS
 <Jan01-2013> <00:00:23>  >>>> CYCLE
 <Jan01-2013> <00:00:24>    1
 <Jan01-2013> <00:00:24>    2  ErrMat   0.02883144  MaxEl -0.00711522
 <Jan01-2013> <00:00:24>    3  ErrMat   0.01405672  MaxEl -0.00302626
 <Jan01-2013> <00:00:24>    4  ErrMat   0.00752520  MaxEl -0.00170399
 <Jan01-2013> <00:00:24>    5  ErrMat   0.00045815  MaxEl  0.00015275
 <Jan01-2013> <00:00:24>    6  ErrMat   0.00010215  MaxEl  0.00002578
 <Jan01-2013> <00:00:24>    7  ErrMat   0.00000684  MaxEl -0.00000225
 <Jan01-2013> <00:00:24>    8  ErrMat   0.00000054  MaxEl  0.00000018
 <Jan01-2013> <00:00:24>  SCF converged
 <Jan01-2013> <00:00:24>    9  ErrMat   0.00000011  MaxEl -0.00000003
 <Jan01-2013> <00:00:24>  >>>> TOTEN
 <Jan01-2013> <00:00:25>  >>>> POPAN
 <Jan01-2013> <00:00:25>  >>>> DEBYE
 <Jan01-2013> <00:00:25>  >>>> AMETS
 <Jan01-2013> <00:00:25>  >>>> ENGRAD
  Coordinates in Frequency Displacement 10
    Atom         X           Y           Z   (Angstrom)
    1.H        -0.709882   -2.749724    0.000000
    2.O        -1.062923   -1.832361    0.004986
    3.H        -2.178454   -1.865642    0.000000
 <Jan01-2013> <00:00:25>  >>>> CORORT
 <Jan01-2013> <00:00:25>  >>>> FITINT
 <Jan01-2013> <00:00:25>  >>>> CLSMAT
 <Jan01-2013> <00:00:25>  >>>> ORTHON
 <Jan01-2013> <00:00:25>  >>>> GENPT
 <Jan01-2013> <00:00:25>  Block Length= 128
 <Jan01-2013> <00:00:25>  >>>> PTBAS
 <Jan01-2013> <00:00:25>  >>>> CYCLE
 <Jan01-2013> <00:00:25>    1
 <Jan01-2013> <00:00:26>    2  ErrMat   0.00017083  MaxEl -0.00003867
 <Jan01-2013> <00:00:26>    3  ErrMat   0.00008272  MaxEl  0.00001716
 <Jan01-2013> <00:00:26>    4  ErrMat   0.00004702  MaxEl -0.00001322
 <Jan01-2013> <00:00:26>    5  ErrMat   0.00000234  MaxEl -0.00000054
 <Jan01-2013> <00:00:26>  SCF converged
 <Jan01-2013> <00:00:26>    6  ErrMat   0.00000071  MaxEl  0.00000018
 <Jan01-2013> <00:00:26>  >>>> TOTEN
 <Jan01-2013> <00:00:26>  >>>> POPAN
 <Jan01-2013> <00:00:26>  >>>> DEBYE
 <Jan01-2013> <00:00:26>  >>>> AMETS
 <Jan01-2013> <00:00:26>  >>>> ENGRAD
  Coordinates in Frequency Displacement 11
    Atom         X           Y           Z   (Angstrom)
    1.H        -0.709882   -2.749724    0.000000
    2.O        -1.072758   -1.835674   -0.004620
    3.H        -2.178454   -1.865642    0.000000
 <Jan01-2013> <00:00:27>  >>>> CORORT
 <Jan01-2013> <00:00:27>  >>>> FITINT
 <Jan01-2013> <00:00:27>  >>>> CLSMAT
 <Jan01-2013> <00:00:27>  >>>> ORTHON
 <Jan01-2013> <00:00:27>  >>>> GENPT
 <Jan01-2013> <00:00:27>  Block Length= 128
 <Jan01-2013> <00:00:27>  >>>> PTBAS
 <Jan01-2013> <00:00:27>  >>>> CYCLE
 <Jan01-2013> <00:00:27>    1
 <Jan01-2013> <00:00:27>    2  ErrMat   0.02092038  MaxEl  0.00404583
 <Jan01-2013> <00:00:27>    3  ErrMat   0.01347779  MaxEl  0.00267172
 <Jan01-2013> <00:00:27>    4  ErrMat   0.00160805  MaxEl -0.00039111
 <Jan01-2013> <00:00:27>    5  ErrMat   0.00111986  MaxEl  0.00032103
 <Jan01-2013> <00:00:28>    6  ErrMat   0.00009565  MaxEl -0.00002048
 <Jan01-2013> <00:00:28>    7  ErrMat   0.00000663  MaxEl -0.00000173
 <Jan01-2013> <00:00:28>    8  ErrMat   0.00000114  MaxEl  0.00000046
 <Jan01-2013> <00:00:28>  SCF converged
 <Jan01-2013> <00:00:28>    9  ErrMat   0.00000008  MaxEl -0.00000002
 <Jan01-2013> <00:00:28>  >>>> TOTEN
 <Jan01-2013> <00:00:28>  >>>> POPAN
 <Jan01-2013> <00:00:28>  >>>> DEBYE
 <Jan01-2013> <00:00:28>  >>>> AMETS
 <Jan01-2013> <00:00:28>  >>>> ENGRAD
  Coordinates in Frequency Displacement 12
    Atom         X           Y           Z   (Angstrom)
    1.H        -0.709882   -2.749724    0.000000
    2.O        -1.058090   -1.845647    0.004620
    3.H        -2.178454   -1.865642    0.000000
 <Jan01-2013> <00:00:29>  >>>> CORORT
 <Jan01-2013> <00:00:29>  >>>> FITINT
 <Jan01-2013> <00:00:29>  >>>> CLSMAT
 <Jan01-2013> <00:00:29>  >>>> ORTHON
 <Jan01-2013> <00:00:29>  >>>> GENPT
 <Jan01-2013> <00:00:29>  Block Length= 128
 <Jan01-2013> <00:00:29>  >>>> PTBAS
 <Jan01-2013> <00:00:29>  >>>> CYCLE
 <Jan01-2013> <00:00:29>    1
 <Jan01-2013> <00:00:29>    2  ErrMat   0.00079305  MaxEl -0.00026225
 <Jan01-2013> <00:00:30>    3  ErrMat   0.00030014  MaxEl -0.00010125
 <Jan01-2013> <00:00:30>    4  ErrMat   0.00009087  MaxEl  0.00001948
 <Jan01-2013> <00:00:30>    5  ErrMat   0.00001055  MaxEl  0.00000238
 <Jan01-2013> <00:00:30>    6  ErrMat   0.00000183  MaxEl -0.00000045
 <Jan01-2013> <00:00:30>  SCF converged
 <Jan01-2013> <00:00:30>    7  ErrMat   0.00000017  MaxEl -0.00000006
 <Jan01-2013> <00:00:30>  >>>> TOTEN
 <Jan01-2013> <00:00:30>  >>>> POPAN
 <Jan01-2013> <00:00:30>  >>>> DEBYE
 <Jan01-2013> <00:00:30>  >>>> AMETS
 <Jan01-2013> <00:00:30>  >>>> ENGRAD
  Coordinates in Frequency Displacement 13
    Atom         X           Y           Z   (Angstrom)
    1.H        -0.709882   -2.749724    0.000000
    2.O        -1.065424   -1.840661    0.000000
    3.H        -2.184775   -1.868143    0.007334
 <Jan01-2013> <00:00:31>  >>>> CORORT
 <Jan01-2013> <00:00:31>  >>>> FITINT
 <Jan01-2013> <00:00:31>  >>>> CLSMAT
 <Jan01-2013> <00:00:31>  >>>> ORTHON
 <Jan01-2013> <00:00:31>  >>>> GENPT
 <Jan01-2013> <00:00:31>  Block Length= 128
 <Jan01-2013> <00:00:31>  >>>> PTBAS
 <Jan01-2013> <00:00:31>  >>>> CYCLE
 <Jan01-2013> <00:00:31>    1
 <Jan01-2013> <00:00:31>    2  ErrMat   0.01498390  MaxEl  0.00492088
 <Jan01-2013> <00:00:32>    3  ErrMat   0.00667522  MaxEl  0.00200337
 <Jan01-2013> <00:00:32>    4  ErrMat   0.00280862  MaxEl -0.00067982
 <Jan01-2013> <00:00:32>    5  ErrMat   0.00027807  MaxEl -0.00006522
 <Jan01-2013> <00:00:32>    6  ErrMat   0.00005774  MaxEl  0.00001044
 <Jan01-2013> <00:00:32>    7  ErrMat   0.00000635  MaxEl  0.00000256
 <Jan01-2013> <00:00:32>    8  ErrMat   0.00000076  MaxEl -0.00000030
 <Jan01-2013> <00:00:32>  SCF converged
 <Jan01-2013> <00:00:32>    9  ErrMat   0.00000005  MaxEl -0.00000001
 <Jan01-2013> <00:00:32>  >>>> TOTEN
 <Jan01-2013> <00:00:33>  >>>> POPAN
 <Jan01-2013> <00:00:33>  >>>> DEBYE
 <Jan01-2013> <00:00:33>  >>>> AMETS
 <Jan01-2013> <00:00:33>  >>>> ENGRAD
  Coordinates in Frequency Displacement 14
    Atom         X           Y           Z   (Angstrom)
    1.H        -0.709882   -2.749724    0.000000
    2.O        -1.065424   -1.840661    0.000000
    3.H        -2.172133   -1.863140   -0.007334
 <Jan01-2013> <00:00:33>  >>>> CORORT
 <Jan01-2013> <00:00:33>  >>>> FITINT
 <Jan01-2013> <00:00:33>  >>>> CLSMAT
 <Jan01-2013> <00:00:33>  >>>> ORTHON
 <Jan01-2013> <00:00:33>  >>>> GENPT
 <Jan01-2013> <00:00:33>  Block Length= 128
 <Jan01-2013> <00:00:33>  >>>> PTBAS
 <Jan01-2013> <00:00:33>  >>>> CYCLE
 <Jan01-2013> <00:00:33>    1
 <Jan01-2013> <00:00:34>    2  ErrMat   0.00050672  MaxEl -0.00016218
 <Jan01-2013> <00:00:34>    3  ErrMat   0.00021804  MaxEl -0.00006478
 <Jan01-2013> <00:00:34>    4  ErrMat   0.00008468  MaxEl  0.00002177
 <Jan01-2013> <00:00:34>    5  ErrMat   0.00000777  MaxEl  0.00000189
 <Jan01-2013> <00:00:34>    6  ErrMat   0.00000161  MaxEl  0.00000034
 <Jan01-2013> <00:00:34>  SCF converged
 <Jan01-2013> <00:00:34>    7  ErrMat   0.00000016  MaxEl -0.00000006
 <Jan01-2013> <00:00:34>  >>>> TOTEN
 <Jan01-2013> <00:00:34>  >>>> POPAN
 <Jan01-2013> <00:00:34>  >>>> DEBYE
 <Jan01-2013> <00:00:34>  >>>> AMETS
 <Jan01-2013> <00:00:34>  >>>> ENGRAD
  Coordinates in Frequency Displacement 15
    Atom         X           Y           Z   (Angstrom)
    1.H        -0.709882   -2.749724    0.000000
    2.O        -1.065424   -1.840661    0.000000
    3.H        -2.180955   -1.873941   -0.004986
 <Jan01-2013> <00:00:35>  >>>> CORORT
 <Jan01-2013> <00:00:35>  >>>> FITINT
 <Jan01-2013> <00:00:35>  >>>> CLSMAT
 <Jan01-2013> <00:00:35>  >>>> ORTHON
 <Jan01-2013> <00:00:35>  >>>> GENPT
 <Jan01-2013> <00:00:35>  Block Length= 128
 <Jan01-2013> <00:00:35>  >>>> PTBAS
 <Jan01-2013> <00:00:35>  >>>> CYCLE
 <Jan01-2013> <00:00:35>    1
 <Jan01-2013> <00:00:35>    2  ErrMat   0.01092075  MaxEl  0.00234971
 <Jan01-2013> <00:00:35>    3  ErrMat   0.00602078  MaxEl -0.00129505
 <Jan01-2013> <00:00:36>    4  ErrMat   0.00409003  MaxEl  0.00098939
 <Jan01-2013> <00:00:36>    5  ErrMat   0.00022114  MaxEl -0.00008331
 <Jan01-2013> <00:00:36>    6  ErrMat   0.00005802  MaxEl  0.00001593
 <Jan01-2013> <00:00:36>    7  ErrMat   0.00000523  MaxEl  0.00000143
 <Jan01-2013> <00:00:36>    8  ErrMat   0.00000067  MaxEl -0.00000029
 <Jan01-2013> <00:00:36>  SCF converged
 <Jan01-2013> <00:00:36>    9  ErrMat   0.00000005  MaxEl -0.00000001
 <Jan01-2013> <00:00:36>  >>>> TOTEN
 <Jan01-2013> <00:00:36>  >>>> POPAN
 <Jan01-2013> <00:00:36>  >>>> DEBYE
 <Jan01-2013> <00:00:36>  >>>> AMETS
 <Jan01-2013> <00:00:36>  >>>> ENGRAD
  Coordinates in Frequency Displacement 16
    Atom         X           Y           Z   (Angstrom)
    1.H        -0.709882   -2.749724    0.000000
    2.O        -1.065424   -1.840661    0.000000
    3.H        -2.175952   -1.857342    0.004986
 <Jan01-2013> <00:00:37>  >>>> CORORT
 <Jan01-2013> <00:00:37>  >>>> FITINT
 <Jan01-2013> <00:00:37>  >>>> CLSMAT
 <Jan01-2013> <00:00:37>  >>>> ORTHON
 <Jan01-2013> <00:00:37>  >>>> GENPT
 <Jan01-2013> <00:00:37>  Block Length= 128
 <Jan01-2013> <00:00:37>  >>>> PTBAS
 <Jan01-2013> <00:00:37>  >>>> CYCLE
 <Jan01-2013> <00:00:37>    1
 <Jan01-2013> <00:00:37>    2  ErrMat   0.00013704  MaxEl -0.00002908
 <Jan01-2013> <00:00:38>    3  ErrMat   0.00007619  MaxEl  0.00001711
 <Jan01-2013> <00:00:38>    4  ErrMat   0.00005341  MaxEl -0.00001354
 <Jan01-2013> <00:00:38>    5  ErrMat   0.00000300  MaxEl  0.00000113
 <Jan01-2013> <00:00:38>    6  ErrMat   0.00000071  MaxEl  0.00000018
 <Jan01-2013> <00:00:38>  SCF converged
 <Jan01-2013> <00:00:38>    7  ErrMat   0.00000006  MaxEl -0.00000002
 <Jan01-2013> <00:00:38>  >>>> TOTEN
 <Jan01-2013> <00:00:38>  >>>> POPAN
 <Jan01-2013> <00:00:38>  >>>> DEBYE
 <Jan01-2013> <00:00:38>  >>>> AMETS
 <Jan01-2013> <00:00:38>  >>>> ENGRAD
  Coordinates in Frequency Displacement 17
    Atom         X           Y           Z   (Angstrom)
    1.H        -0.709882   -2.749724    0.000000
    2.O        -1.065424   -1.840661    0.000000
    3.H        -2.185788   -1.860655   -0.004620
 <Jan01-2013> <00:00:39>  >>>> CORORT
 <Jan01-2013> <00:00:39>  >>>> FITINT
 <Jan01-2013> <00:00:39>  >>>> CLSMAT
 <Jan01-2013> <00:00:39>  >>>> ORTHON
 <Jan01-2013> <00:00:39>  >>>> GENPT
 <Jan01-2013> <00:00:39>  Block Length= 128
 <Jan01-2013> <00:00:39>  >>>> PTBAS
 <Jan01-2013> <00:00:39>  >>>> CYCLE
 <Jan01-2013> <00:00:39>    1
 <Jan01-2013> <00:00:39>    2  ErrMat   0.01546119  MaxEl  0.00531809
 <Jan01-2013> <00:00:39>    3  ErrMat   0.00706779  MaxEl  0.00225947
 <Jan01-2013> <00:00:39>    4  ErrMat   0.00379191  MaxEl  0.00103928
 <Jan01-2013> <00:00:39>    5  ErrMat   0.00030333  MaxEl -0.00005789
 <Jan01-2013> <00:00:40>    6  ErrMat   0.00004749  MaxEl -0.00001252
 <Jan01-2013> <00:00:40>    7  ErrMat   0.00000441  MaxEl  0.00000164
 <Jan01-2013> <00:00:40>    8  ErrMat   0.00000067  MaxEl -0.00000024
 <Jan01-2013> <00:00:40>  SCF converged
 <Jan01-2013> <00:00:40>    9  ErrMat   0.00000005  MaxEl  0.00000002
 <Jan01-2013> <00:00:40>  >>>> TOTEN
 <Jan01-2013> <00:00:40>  >>>> POPAN
 <Jan01-2013> <00:00:40>  >>>> DEBYE
 <Jan01-2013> <00:00:40>  >>>> AMETS
 <Jan01-2013> <00:00:40>  >>>> ENGRAD
  Coordinates in Frequency Displacement 18
    Atom         X           Y           Z   (Angstrom)
    1.H        -0.709882   -2.749724    0.000000
    2.O        -1.065424   -1.840661    0.000000
    3.H        -2.171120   -1.870628    0.004620
 <Jan01-2013> <00:00:41>  >>>> CORORT
 <Jan01-2013> <00:00:41>  >>>> FITINT
 <Jan01-2013> <00:00:41>  >>>> CLSMAT
 <Jan01-2013> <00:00:41>  >>>> ORTHON
 <Jan01-2013> <00:00:41>  >>>> GENPT
 <Jan01-2013> <00:00:41>  Block Length= 128
 <Jan01-2013> <00:00:41>  >>>> PTBAS
 <Jan01-2013> <00:00:41>  >>>> CYCLE
 <Jan01-2013> <00:00:41>    1
 <Jan01-2013> <00:00:41>    2  ErrMat   0.00061146  MaxEl -0.00020517
 <Jan01-2013> <00:00:41>    3  ErrMat   0.00026591  MaxEl -0.00008486
 <Jan01-2013> <00:00:41>    4  ErrMat   0.00012522  MaxEl -0.00003281
 <Jan01-2013> <00:00:41>    5  ErrMat   0.00001043  MaxEl  0.00000203
 <Jan01-2013> <00:00:42>    6  ErrMat   0.00000170  MaxEl  0.00000037
 <Jan01-2013> <00:00:42>  SCF converged
 <Jan01-2013> <00:00:42>    7  ErrMat   0.00000013  MaxEl -0.00000005
 <Jan01-2013> <00:00:42>  >>>> TOTEN
 <Jan01-2013> <00:00:42>  >>>> POPAN
 <Jan01-2013> <00:00:42>  >>>> DEBYE
 <Jan01-2013> <00:00:42>  >>>> AMETS
 <Jan01-2013> <00:00:42>  >>>> ENGRAD
 <Jan01-2013> <00:00:43>  Force Constants computed
 <Jan01-2013> <00:00:43>  There were warnings during force constant computation. Please check the output file.
 <Jan01-2013> <00:00:43>  NORMAL TERMINATION
 <Jan01-2013> <00:00:43>  END
