 Entering Gaussian System, Link 0=g16
 Initial command:
 /cm/shared/apps/gaussian/intel/EM64T/SSE4_2-enabled/binary//g16/l1.exe "/scratch/florez/25750/Gau-13925.inp" -scrdir="/scratch/florez/25750/"
 Entering Link 1 = /cm/shared/apps/gaussian/intel/EM64T/SSE4_2-enabled/binary//g16/l1.exe PID=     13930.
  
 Copyright (c) 1988,1990,1992,1993,1995,1998,2003,2009,2016,
            Gaussian, Inc.  All Rights Reserved.
  
 This is part of the Gaussian(R) 16 program.  It is based on
 the Gaussian(R) 09 system (copyright 2009, Gaussian, Inc.),
 the Gaussian(R) 03 system (copyright 2003, Gaussian, Inc.),
 the Gaussian(R) 98 system (copyright 1998, Gaussian, Inc.),
 the Gaussian(R) 94 system (copyright 1995, Gaussian, Inc.),
 the Gaussian 92(TM) system (copyright 1992, Gaussian, Inc.),
 the Gaussian 90(TM) system (copyright 1990, Gaussian, Inc.),
 the Gaussian 88(TM) system (copyright 1988, Gaussian, Inc.),
 the Gaussian 86(TM) system (copyright 1986, Carnegie Mellon
 University), and the Gaussian 82(TM) system (copyright 1983,
 Carnegie Mellon University). Gaussian is a federally registered
 trademark of Gaussian, Inc.
  
 This software contains proprietary and confidential information,
 including trade secrets, belonging to Gaussian, Inc.
  
 This software is provided under written license and may be
 used, copied, transmitted, or stored only in accord with that
 written license.
  
 The following legend is applicable only to US Government
 contracts under FAR:
  
                    RESTRICTED RIGHTS LEGEND
  
 Use, reproduction and disclosure by the US Government is
 subject to restrictions as set forth in subparagraphs (a)
 and (c) of the Commercial Computer Software - Restricted
 Rights clause in FAR 52.227-19.
  
 Gaussian, Inc.
 340 Quinnipiac St., Bldg. 40, Wallingford CT 06492
  
  
 ---------------------------------------------------------------
 Warning -- This program may not be used in any manner that
 competes with the business of Gaussian, Inc. or will provide
 assistance to any competitor of Gaussian, Inc.  The licensee
 of this program is prohibited from giving any competitor of
 Gaussian, Inc. access to this program.  By using this program,
 the user acknowledges that Gaussian, Inc. is engaged in the
 business of creating and licensing software in the field of
 computational chemistry and represents and warrants to the
 licensee that it is not a competitor of Gaussian, Inc. and that
 it will not use this program in any manner prohibited above.
 ---------------------------------------------------------------
  

 Cite this work as:
 Gaussian 16, Revision A.03,
 M. J. Frisch, G. W. Trucks, H. B. Schlegel, G. E. Scuseria, 
 M. A. Robb, J. R. Cheeseman, G. Scalmani, V. Barone, 
 G. A. Petersson, H. Nakatsuji, X. Li, M. Caricato, A. V. Marenich, 
 J. Bloino, B. G. Janesko, R. Gomperts, B. Mennucci, H. P. Hratchian, 
 J. V. Ortiz, A. F. Izmaylov, J. L. Sonnenberg, D. Williams-Young, 
 F. Ding, F. Lipparini, F. Egidi, J. Goings, B. Peng, A. Petrone, 
 T. Henderson, D. Ranasinghe, V. G. Zakrzewski, J. Gao, N. Rega, 
 G. Zheng, W. Liang, M. Hada, M. Ehara, K. Toyota, R. Fukuda, 
 J. Hasegawa, M. Ishida, T. Nakajima, Y. Honda, O. Kitao, H. Nakai, 
 T. Vreven, K. Throssell, J. A. Montgomery, Jr., J. E. Peralta, 
 F. Ogliaro, M. J. Bearpark, J. J. Heyd, E. N. Brothers, K. N. Kudin, 
 V. N. Staroverov, T. A. Keith, R. Kobayashi, J. Normand, 
 K. Raghavachari, A. P. Rendell, J. C. Burant, S. S. Iyengar, 
 J. Tomasi, M. Cossi, J. M. Millam, M. Klene, C. Adamo, R. Cammi, 
 J. W. Ochterski, R. L. Martin, K. Morokuma, O. Farkas, 
 J. B. Foresman, and D. J. Fox, Gaussian, Inc., Wallingford CT, 2016.
 
 ******************************************
 Gaussian 16:  ES64L-G16RevA.03 25-Dec-2016
                11-May-2022 
 ******************************************
 %chk=w1s1.chk
 %nproc=28
 Will use up to   28 processors via shared memory.
 %mem=500gb
 ------------------------
 #p MP2(full) SDDAll freq
 ------------------------
 1/10=4,30=1,38=1/1,3;
 2/12=2,17=6,18=5,40=1/2;
 3/5=17,6=6,11=9,25=1,30=1,71=2,140=1/1,2,3;
 4//1;
 5/5=2,38=5,98=1/2;
 8/6=3,8=1,10=90,19=11/1;
 9/15=3,16=-3/6;
 11/6=1,8=1,15=11,17=11,24=-1,27=1,28=-2,29=300,32=6,42=3/1,2,10;
 10/6=2,21=1/2;
 8/6=4,8=1,10=90,19=11/11,4;
 10/5=1,20=4/2;
 11/12=2,14=11,16=1,28=-2,42=3/2,10,12;
 6/7=2,8=2,9=2,10=2/1;
 7/8=1,10=1,12=2,25=1,44=2/1,2,3,16;
 1/10=4,30=1/3;
 99//99;
 Leave Link    1 at Wed May 11 21:22:31 2022, MaxMem= 67108864000 cpu:               1.3 elap:               0.1
 (Enter /cm/shared/apps/gaussian/intel/EM64T/SSE4_2-enabled/binary//g16/l101.exe)
 ----------------------------------------------------------------------
 file 'w1s1.log' Now we use Def2-QZVPPD, but it was opt at: ---' #p ZOR
 A-SR+SO PBE QZ4P'---
 ----------------------------------------------------------------------
 Symbolic Z-matrix:
 Charge =  2 Multiplicity = 1
 Hg(Fragment=1)       -0.22513   0.01074   0. 
 O(Fragment=2)         1.82138  -0.09017   0. 
 H(Fragment=2)         2.32594   0.18731   0.79892 
 H(Fragment=2)         2.32594   0.17731  -0.79892 
 
 ITRead=  0  0  0  0
 MicOpt= -1 -1 -1 -1
 NAtoms=      4 NQM=        4 NQMF=       0 NMMI=      0 NMMIF=      0
                NMic=       0 NMicF=      0.
                    Isotopes and Nuclear Properties:
 (Nuclear quadrupole moments (NQMom) in fm**2, nuclear magnetic moments (NMagM)
  in nuclear magnetons)

  Atom         1           2           3           4
 IAtWgt=         202          16           1           1
 AtmWgt= 201.9706000  15.9949146   1.0078250   1.0078250
 NucSpn=           0           0           1           1
 AtZEff=  -0.0000000  -0.0000000  -0.0000000  -0.0000000
 NQMom=    0.0000000   0.0000000   0.0000000   0.0000000
 NMagM=    0.0000000   0.0000000   2.7928460   2.7928460
 AtZNuc=  80.0000000   8.0000000   1.0000000   1.0000000
 Leave Link  101 at Wed May 11 21:22:31 2022, MaxMem= 67108864000 cpu:               2.4 elap:               0.1
 (Enter /cm/shared/apps/gaussian/intel/EM64T/SSE4_2-enabled/binary//g16/l103.exe)

 GradGradGradGradGradGradGradGradGradGradGradGradGradGradGradGradGradGrad
 Berny optimization.
 Initialization pass.
 Trust Radius=3.00D-01 FncErr=1.00D-07 GrdErr=1.00D-07 EigMax=2.50D+02 EigMin=1.00D-04
 Number of steps in this run=      2 maximum allowed number of steps=      2.
 GradGradGradGradGradGradGradGradGradGradGradGradGradGradGradGradGradGrad

 Leave Link  103 at Wed May 11 21:22:31 2022, MaxMem= 67108864000 cpu:               0.8 elap:               0.1
 (Enter /cm/shared/apps/gaussian/intel/EM64T/SSE4_2-enabled/binary//g16/l202.exe)
                          Input orientation:                          
 ---------------------------------------------------------------------
 Center     Atomic      Atomic             Coordinates (Angstroms)
 Number     Number       Type             X           Y           Z
 ---------------------------------------------------------------------
      1         80           0       -0.225130    0.010739    0.000000
      2          8           0        1.821376   -0.090165    0.000000
      3          1           0        2.325945    0.187310    0.798920
      4          1           0        2.325945    0.177310   -0.798920
 ---------------------------------------------------------------------
                    Distance matrix (angstroms):
                    1          2          3          4
     1  Hg   0.000000
     2  O    2.048992   0.000000
     3  H    2.679073   0.984812   0.000000
     4  H    2.678433   0.982042   1.597871   0.000000
 Stoichiometry    H2HgO(2+)
 Framework group  C1[X(H2HgO)]
 Deg. of freedom     6
 Full point group                 C1      NOp   1
 Largest Abelian subgroup         C1      NOp   1
 Largest concise Abelian subgroup C1      NOp   1
                         Standard orientation:                         
 ---------------------------------------------------------------------
 Center     Atomic      Atomic             Coordinates (Angstroms)
 Number     Number       Type             X           Y           Z
 ---------------------------------------------------------------------
      1         80           0        0.238654    0.000008    0.001307
      2          8           0       -1.809213   -0.000457   -0.066567
      3          1           0       -2.309238    0.800430    0.213453
      4          1           0       -2.309404   -0.797441    0.214559
 ---------------------------------------------------------------------
 Rotational constants (GHZ):         352.0789874           6.8478582           6.7438895
 Leave Link  202 at Wed May 11 21:22:32 2022, MaxMem= 67108864000 cpu:               0.6 elap:               0.1
 (Enter /cm/shared/apps/gaussian/intel/EM64T/SSE4_2-enabled/binary//g16/l301.exe)
 Standard basis: SDDAll (6D, 10F)
 Ernie: Thresh=  0.10000D-02 Tol=  0.10000D-05 Strict=F.
 There are    54 symmetry adapted cartesian basis functions of A   symmetry.
 There are    54 symmetry adapted basis functions of A   symmetry.
    54 basis functions,    92 primitive gaussians,    54 cartesian basis functions
    13 alpha electrons       13 beta electrons
       nuclear repulsion energy        45.6816383383 Hartrees.
 IExCor=    0 DFT=F Ex=HF Corr=None ExCW=0 ScaHFX=  1.000000
 ScaDFX=  1.000000  1.000000  1.000000  1.000000 ScalE2=  1.000000  1.000000
 IRadAn=      5 IRanWt=     -1 IRanGd=            0 ICorTp=0 IEmpDi=  4
 NAtoms=    4 NActive=    4 NUniq=    4 SFac= 1.00D+00 NAtFMM=   60 NAOKFM=F Big=F
 Integral buffers will be    131072 words long.
 Raffenetti 1 integral format.
 Two-electron integral symmetry is turned on.
 Leave Link  301 at Wed May 11 21:22:32 2022, MaxMem= 67108864000 cpu:               2.3 elap:               0.1
 (Enter /cm/shared/apps/gaussian/intel/EM64T/SSE4_2-enabled/binary//g16/l302.exe)
 NPDir=0 NMtPBC=     1 NCelOv=     1 NCel=       1 NClECP=     1 NCelD=      1
         NCelK=      1 NCelE2=     1 NClLst=     1 CellRange=     0.0.
 One-electron integrals computed using PRISM.
 One-electron integral symmetry used in STVInt
   1 Symmetry operations used in ECPInt.
 ECPInt:  NShTT=     276 NPrTT=     764 LenC2=     277 LenP2D=     735.
 LDataN:  DoStor=T MaxTD1= 7 Len=  274
 NBasis=    54 RedAO= T EigKep=  3.95D-04  NBF=    54
 NBsUse=    54 1.00D-06 EigRej= -1.00D+00 NBFU=    54
 Leave Link  302 at Wed May 11 21:22:32 2022, MaxMem= 67108864000 cpu:               5.1 elap:               0.2
 (Enter /cm/shared/apps/gaussian/intel/EM64T/SSE4_2-enabled/binary//g16/l303.exe)
 DipDrv:  MaxL=1.
 Leave Link  303 at Wed May 11 21:22:32 2022, MaxMem= 67108864000 cpu:               2.5 elap:               0.1
 (Enter /cm/shared/apps/gaussian/intel/EM64T/SSE4_2-enabled/binary//g16/l401.exe)
 ExpMin= 2.00D-02 ExpMax= 4.71D+01 ExpMxC= 4.71D+01 IAcc=3 IRadAn=         5 AccDes= 0.00D+00
 Harris functional with IExCor=  205 and IRadAn=       5 diagonalized for initial guess.
 HarFok:  IExCor=  205 AccDes= 0.00D+00 IRadAn=         5 IDoV= 1 UseB2=F ITyADJ=14
 ICtDFT=  3500011 ScaDFX=  1.000000  1.000000  1.000000  1.000000
 Defaulting to unpruned grid for atomic number  80.
 FoFCou: FMM=F IPFlag=           0 FMFlag=      100000 FMFlg1=           0
         NFxFlg=           0 DoJE=T BraDBF=F KetDBF=T FulRan=T
         wScrn=  0.000000 ICntrl=       500 IOpCl=  0 I1Cent=   200000004 NGrid=           0
         NMat0=    1 NMatS0=      1 NMatT0=    0 NMatD0=    1 NMtDS0=    0 NMtDT0=    0
 Petite list used in FoFCou.
 Harris En= -170.447697430037    
 JPrj=0 DoOrth=F DoCkMO=F.
 Leave Link  401 at Wed May 11 21:22:32 2022, MaxMem= 67108864000 cpu:               6.1 elap:               0.3
 (Enter /cm/shared/apps/gaussian/intel/EM64T/SSE4_2-enabled/binary//g16/l502.exe)
 Keep R1 ints in memory in canonical form, NReq=6880881.
 FoFCou: FMM=F IPFlag=           0 FMFlag=           0 FMFlg1=           0
         NFxFlg=           0 DoJE=F BraDBF=F KetDBF=F FulRan=T
         wScrn=  0.000000 ICntrl=       600 IOpCl=  0 I1Cent=           0 NGrid=           0
         NMat0=    1 NMatS0=   1485 NMatT0=    0 NMatD0=    1 NMtDS0=    0 NMtDT0=    0
 Symmetry not used in FoFCou.
 Two-electron integral symmetry not used.
 Closed shell SCF:
 Using DIIS extrapolation, IDIIS=  1040.
 NGot= 67108864000 LenX= 67107752612 LenY= 67107749255
 Requested convergence on RMS density matrix=1.00D-08 within 128 cycles.
 Requested convergence on MAX density matrix=1.00D-06.
 Requested convergence on             energy=1.00D-06.
 No special actions if energy rises.

 Cycle   1  Pass 1  IDiag  1:
 E= -168.272551249727    
 DIIS: error= 9.07D-02 at cycle   1 NSaved=   1.
 NSaved= 1 IEnMin= 1 EnMin= -168.272551249727     IErMin= 1 ErrMin= 9.07D-02
 ErrMax= 9.07D-02  0.00D+00 EMaxC= 1.00D-01 BMatC= 3.82D-01 BMatP= 3.82D-01
 IDIUse=3 WtCom= 9.26D-02 WtEn= 9.07D-01
 Coeff-Com:  0.100D+01
 Coeff-En:   0.100D+01
 Coeff:      0.100D+01
 Gap=     0.645 Goal=   None    Shift=    0.000
 GapD=    0.645 DampG=2.000 DampE=0.250 DampFc=0.5000 IDamp=-1.
 Damping current iteration by 5.00D-01
 RMSDP=1.63D-02 MaxDP=2.56D-01              OVMax= 2.41D-01

 Cycle   2  Pass 1  IDiag  1:
 E= -168.461207081651     Delta-E=       -0.188655831924 Rises=F Damp=T
 DIIS: error= 2.97D-02 at cycle   2 NSaved=   2.
 NSaved= 2 IEnMin= 2 EnMin= -168.461207081651     IErMin= 2 ErrMin= 2.97D-02
 ErrMax= 2.97D-02  0.00D+00 EMaxC= 1.00D-01 BMatC= 3.49D-02 BMatP= 3.82D-01
 IDIUse=3 WtCom= 7.03D-01 WtEn= 2.97D-01
 Coeff-Com: -0.304D+00 0.130D+01
 Coeff-En:   0.000D+00 0.100D+01
 Coeff:     -0.214D+00 0.121D+01
 Gap=     0.520 Goal=   None    Shift=    0.000
 RMSDP=6.07D-03 MaxDP=9.64D-02 DE=-1.89D-01 OVMax= 5.47D-02

 Cycle   3  Pass 1  IDiag  1:
 E= -168.621163474470     Delta-E=       -0.159956392820 Rises=F Damp=F
 DIIS: error= 4.94D-03 at cycle   3 NSaved=   3.
 NSaved= 3 IEnMin= 3 EnMin= -168.621163474470     IErMin= 3 ErrMin= 4.94D-03
 ErrMax= 4.94D-03  0.00D+00 EMaxC= 1.00D-01 BMatC= 4.70D-03 BMatP= 3.49D-02
 IDIUse=3 WtCom= 9.51D-01 WtEn= 4.94D-02
 Coeff-Com:  0.148D+00-0.309D+00 0.116D+01
 Coeff-En:   0.000D+00 0.000D+00 0.100D+01
 Coeff:      0.141D+00-0.293D+00 0.115D+01
 Gap=     0.494 Goal=   None    Shift=    0.000
 RMSDP=2.43D-03 MaxDP=3.01D-02 DE=-1.60D-01 OVMax= 3.29D-02

 Cycle   4  Pass 1  IDiag  1:
 E= -168.626619417740     Delta-E=       -0.005455943270 Rises=F Damp=F
 DIIS: error= 4.01D-03 at cycle   4 NSaved=   4.
 NSaved= 4 IEnMin= 4 EnMin= -168.626619417740     IErMin= 4 ErrMin= 4.01D-03
 ErrMax= 4.01D-03  0.00D+00 EMaxC= 1.00D-01 BMatC= 5.83D-04 BMatP= 4.70D-03
 IDIUse=3 WtCom= 9.60D-01 WtEn= 4.01D-02
 Coeff-Com:  0.686D-01-0.201D+00 0.327D+00 0.805D+00
 Coeff-En:   0.000D+00 0.000D+00 0.000D+00 0.100D+01
 Coeff:      0.658D-01-0.193D+00 0.314D+00 0.813D+00
 Gap=     0.505 Goal=   None    Shift=    0.000
 RMSDP=1.00D-03 MaxDP=1.14D-02 DE=-5.46D-03 OVMax= 1.94D-02

 Cycle   5  Pass 1  IDiag  1:
 E= -168.627899439844     Delta-E=       -0.001280022103 Rises=F Damp=F
 DIIS: error= 1.16D-03 at cycle   5 NSaved=   5.
 NSaved= 5 IEnMin= 5 EnMin= -168.627899439844     IErMin= 5 ErrMin= 1.16D-03
 ErrMax= 1.16D-03  0.00D+00 EMaxC= 1.00D-01 BMatC= 9.55D-05 BMatP= 5.83D-04
 IDIUse=3 WtCom= 9.88D-01 WtEn= 1.16D-02
 Coeff-Com: -0.719D-01 0.178D+00-0.330D+00-0.351D+00 0.157D+01
 Coeff-En:   0.000D+00 0.000D+00 0.000D+00 0.000D+00 0.100D+01
 Coeff:     -0.710D-01 0.176D+00-0.326D+00-0.346D+00 0.157D+01
 Gap=     0.499 Goal=   None    Shift=    0.000
 RMSDP=8.83D-04 MaxDP=1.36D-02 DE=-1.28D-03 OVMax= 1.52D-02

 Cycle   6  Pass 1  IDiag  1:
 E= -168.628340828125     Delta-E=       -0.000441388281 Rises=F Damp=F
 DIIS: error= 2.68D-04 at cycle   6 NSaved=   6.
 NSaved= 6 IEnMin= 6 EnMin= -168.628340828125     IErMin= 6 ErrMin= 2.68D-04
 ErrMax= 2.68D-04  0.00D+00 EMaxC= 1.00D-01 BMatC= 8.47D-06 BMatP= 9.55D-05
 IDIUse=3 WtCom= 9.97D-01 WtEn= 2.68D-03
 Coeff-Com:  0.111D-01-0.226D-01 0.888D-02 0.973D-02-0.322D+00 0.131D+01
 Coeff-En:   0.000D+00 0.000D+00 0.000D+00 0.000D+00 0.000D+00 0.100D+01
 Coeff:      0.111D-01-0.226D-01 0.886D-02 0.970D-02-0.321D+00 0.131D+01
 Gap=     0.498 Goal=   None    Shift=    0.000
 RMSDP=2.97D-04 MaxDP=4.89D-03 DE=-4.41D-04 OVMax= 4.78D-03

 Cycle   7  Pass 1  IDiag  1:
 E= -168.628368273161     Delta-E=       -0.000027445036 Rises=F Damp=F
 DIIS: error= 4.09D-05 at cycle   7 NSaved=   7.
 NSaved= 7 IEnMin= 7 EnMin= -168.628368273161     IErMin= 7 ErrMin= 4.09D-05
 ErrMax= 4.09D-05  0.00D+00 EMaxC= 1.00D-01 BMatC= 1.69D-07 BMatP= 8.47D-06
 IDIUse=1 WtCom= 1.00D+00 WtEn= 0.00D+00
 Coeff-Com: -0.149D-02 0.260D-02 0.929D-02-0.252D-03 0.594D-01-0.329D+00
 Coeff-Com:  0.126D+01
 Coeff:     -0.149D-02 0.260D-02 0.929D-02-0.252D-03 0.594D-01-0.329D+00
 Coeff:      0.126D+01
 Gap=     0.498 Goal=   None    Shift=    0.000
 RMSDP=2.19D-05 MaxDP=3.33D-04 DE=-2.74D-05 OVMax= 4.10D-04

 Cycle   8  Pass 1  IDiag  1:
 E= -168.628368571153     Delta-E=       -0.000000297991 Rises=F Damp=F
 DIIS: error= 6.04D-06 at cycle   8 NSaved=   8.
 NSaved= 8 IEnMin= 8 EnMin= -168.628368571153     IErMin= 8 ErrMin= 6.04D-06
 ErrMax= 6.04D-06  0.00D+00 EMaxC= 1.00D-01 BMatC= 6.54D-09 BMatP= 1.69D-07
 IDIUse=1 WtCom= 1.00D+00 WtEn= 0.00D+00
 Coeff-Com: -0.126D-03 0.350D-03-0.319D-02 0.232D-03-0.161D-03 0.144D-01
 Coeff-Com: -0.263D+00 0.125D+01
 Coeff:     -0.126D-03 0.350D-03-0.319D-02 0.232D-03-0.161D-03 0.144D-01
 Coeff:     -0.263D+00 0.125D+01
 Gap=     0.498 Goal=   None    Shift=    0.000
 RMSDP=4.48D-06 MaxDP=5.64D-05 DE=-2.98D-07 OVMax= 7.50D-05

 Cycle   9  Pass 1  IDiag  1:
 E= -168.628368586445     Delta-E=       -0.000000015292 Rises=F Damp=F
 DIIS: error= 1.69D-06 at cycle   9 NSaved=   9.
 NSaved= 9 IEnMin= 9 EnMin= -168.628368586445     IErMin= 9 ErrMin= 1.69D-06
 ErrMax= 1.69D-06  0.00D+00 EMaxC= 1.00D-01 BMatC= 2.16D-10 BMatP= 6.54D-09
 IDIUse=1 WtCom= 1.00D+00 WtEn= 0.00D+00
 Coeff-Com:  0.594D-04-0.139D-03 0.774D-03-0.164D-03-0.113D-02 0.311D-02
 Coeff-Com:  0.501D-01-0.449D+00 0.140D+01
 Coeff:      0.594D-04-0.139D-03 0.774D-03-0.164D-03-0.113D-02 0.311D-02
 Coeff:      0.501D-01-0.449D+00 0.140D+01
 Gap=     0.498 Goal=   None    Shift=    0.000
 RMSDP=9.67D-07 MaxDP=1.71D-05 DE=-1.53D-08 OVMax= 2.16D-05

 Cycle  10  Pass 1  IDiag  1:
 E= -168.628368587391     Delta-E=       -0.000000000946 Rises=F Damp=F
 DIIS: error= 6.02D-07 at cycle  10 NSaved=  10.
 NSaved=10 IEnMin=10 EnMin= -168.628368587391     IErMin=10 ErrMin= 6.02D-07
 ErrMax= 6.02D-07  0.00D+00 EMaxC= 1.00D-01 BMatC= 1.92D-11 BMatP= 2.16D-10
 IDIUse=1 WtCom= 1.00D+00 WtEn= 0.00D+00
 Coeff-Com: -0.831D-05 0.188D-04-0.116D-03 0.931D-04 0.134D-03-0.919D-03
 Coeff-Com: -0.679D-02 0.106D+00-0.578D+00 0.148D+01
 Coeff:     -0.831D-05 0.188D-04-0.116D-03 0.931D-04 0.134D-03-0.919D-03
 Coeff:     -0.679D-02 0.106D+00-0.578D+00 0.148D+01
 Gap=     0.498 Goal=   None    Shift=    0.000
 RMSDP=3.48D-07 MaxDP=6.75D-06 DE=-9.46D-10 OVMax= 7.15D-06

 Cycle  11  Pass 1  IDiag  1:
 E= -168.628368587488     Delta-E=       -0.000000000097 Rises=F Damp=F
 DIIS: error= 1.62D-07 at cycle  11 NSaved=  11.
 NSaved=11 IEnMin=11 EnMin= -168.628368587488     IErMin=11 ErrMin= 1.62D-07
 ErrMax= 1.62D-07  0.00D+00 EMaxC= 1.00D-01 BMatC= 1.29D-12 BMatP= 1.92D-11
 IDIUse=1 WtCom= 1.00D+00 WtEn= 0.00D+00
 Coeff-Com: -0.151D-05 0.353D-05-0.206D-04-0.170D-04 0.392D-04 0.585D-04
 Coeff-Com: -0.151D-02-0.197D-02 0.103D+00-0.582D+00 0.148D+01
 Coeff:     -0.151D-05 0.353D-05-0.206D-04-0.170D-04 0.392D-04 0.585D-04
 Coeff:     -0.151D-02-0.197D-02 0.103D+00-0.582D+00 0.148D+01
 Gap=     0.498 Goal=   None    Shift=    0.000
 RMSDP=1.01D-07 MaxDP=1.93D-06 DE=-9.68D-11 OVMax= 2.22D-06

 Cycle  12  Pass 1  IDiag  1:
 E= -168.628368587495     Delta-E=       -0.000000000008 Rises=F Damp=F
 DIIS: error= 1.98D-08 at cycle  12 NSaved=  12.
 NSaved=12 IEnMin=12 EnMin= -168.628368587495     IErMin=12 ErrMin= 1.98D-08
 ErrMax= 1.98D-08  0.00D+00 EMaxC= 1.00D-01 BMatC= 2.85D-14 BMatP= 1.29D-12
 IDIUse=1 WtCom= 1.00D+00 WtEn= 0.00D+00
 Coeff-Com:  0.605D-07-0.648D-07 0.403D-05 0.343D-05-0.469D-05-0.717D-05
 Coeff-Com:  0.372D-03-0.231D-03-0.243D-01 0.164D+00-0.516D+00 0.138D+01
 Coeff:      0.605D-07-0.648D-07 0.403D-05 0.343D-05-0.469D-05-0.717D-05
 Coeff:      0.372D-03-0.231D-03-0.243D-01 0.164D+00-0.516D+00 0.138D+01
 Gap=     0.498 Goal=   None    Shift=    0.000
 RMSDP=1.15D-08 MaxDP=1.78D-07 DE=-7.59D-12 OVMax= 2.30D-07

 Cycle  13  Pass 1  IDiag  1:
 E= -168.628368587495     Delta-E=        0.000000000001 Rises=F Damp=F
 DIIS: error= 3.40D-09 at cycle  13 NSaved=  13.
 NSaved=13 IEnMin=12 EnMin= -168.628368587495     IErMin=13 ErrMin= 3.40D-09
 ErrMax= 3.40D-09  0.00D+00 EMaxC= 1.00D-01 BMatC= 7.42D-16 BMatP= 2.85D-14
 IDIUse=1 WtCom= 1.00D+00 WtEn= 0.00D+00
 Coeff-Com:  0.539D-08-0.364D-07-0.524D-07-0.656D-06 0.873D-06-0.419D-05
 Coeff-Com: -0.124D-05-0.321D-03 0.612D-02-0.380D-01 0.124D+00-0.432D+00
 Coeff-Com:  0.134D+01
 Coeff:      0.539D-08-0.364D-07-0.524D-07-0.656D-06 0.873D-06-0.419D-05
 Coeff:     -0.124D-05-0.321D-03 0.612D-02-0.380D-01 0.124D+00-0.432D+00
 Coeff:      0.134D+01
 Gap=     0.498 Goal=   None    Shift=    0.000
 RMSDP=1.74D-09 MaxDP=2.13D-08 DE= 5.12D-13 OVMax= 3.26D-08

 SCF Done:  E(RHF) =  -168.628368587     A.U. after   13 cycles
            NFock= 13  Conv=0.17D-08     -V/T= 3.6117
 KE= 6.456740952433D+01 PE=-4.375948510085D+02 EE= 1.587174345584D+02
 Leave Link  502 at Wed May 11 21:22:33 2022, MaxMem= 67108864000 cpu:               6.5 elap:               0.3
 (Enter /cm/shared/apps/gaussian/intel/EM64T/SSE4_2-enabled/binary//g16/l801.exe)
 Range of M.O.s used for correlation:     1    54
 NBasis=    54 NAE=    13 NBE=    13 NFC=     0 NFV=     0
 NROrb=     54 NOA=    13 NOB=    13 NVA=    41 NVB=    41

 **** Warning!!: The largest alpha MO coefficient is  0.28593270D+02

 Leave Link  801 at Wed May 11 21:22:33 2022, MaxMem= 67108864000 cpu:               0.8 elap:               0.1
 (Enter /cm/shared/apps/gaussian/intel/EM64T/SSE4_2-enabled/binary//g16/l906.exe)
 FulOut=F Deriv=T AODrv=T NAtomX=     4
   MMem=           0  MDisk=          13 MDiskD=          13
  W3Min=       37908 MinDsk=      148415 NBas6D=          54
 NBas2D=        1554    NTT=        1485    LW2=     3308096
    MDV= 67108824751 MDiskM=    17259985 NBas2p=        1554
 Disk-based method using ON**2 memory for 13 occupieds at a time.
 Permanent disk used for amplitudes=      348049 words.
 Estimated scratch disk usage=     4455660 words.
 IMap=   1   2   3   4   5   6   7   8   9  10  11  12  13
 Actual    scratch disk usage=     4455660 words.
 JobTyp=1 Pass  1:  I=   1 to  13 NPSUse= 28 ParTrn=T ParDer=T DoDerP=T.
 (rs|ai) integrals will be sorted in core.
 Spin components of T(2) and E(2):
     alpha-alpha T2 =       0.8620236752D-02 E2=     -0.3021775541D-01
     alpha-beta  T2 =       0.4771041644D-01 E2=     -0.1629432496D+00
     beta-beta   T2 =       0.8620236752D-02 E2=     -0.3021775541D-01
 The integrals were generated   1 times.
 ANorm=    0.1031964578D+01
 E2 =    -0.2233787604D+00 EUMP2 =    -0.16885174734787D+03
 Leave Link  906 at Wed May 11 21:22:34 2022, MaxMem= 67108864000 cpu:              21.3 elap:               0.8
 (Enter /cm/shared/apps/gaussian/intel/EM64T/SSE4_2-enabled/binary//g16/l1101.exe)
 Using compressed Sx but separate Hx and Fx, NAtomX=     4.
 Will process      5 centers per pass.
   1 Symmetry operations used in ECPInt.
 ECPInt:  NShTT=     276 NPrTT=     764 LenC2=     277 LenP2D=     735.
 LDataN:  DoStor=T MaxTD1= 8 Len=  415
 Leave Link 1101 at Wed May 11 21:22:34 2022, MaxMem= 67108864000 cpu:              10.6 elap:               0.4
 (Enter /cm/shared/apps/gaussian/intel/EM64T/SSE4_2-enabled/binary//g16/l1102.exe)
 Leave Link 1102 at Wed May 11 21:22:34 2022, MaxMem= 67108864000 cpu:               0.9 elap:               0.1
 (Enter /cm/shared/apps/gaussian/intel/EM64T/SSE4_2-enabled/binary//g16/l1110.exe)
 Forming Gx(P) for the SCF density, NAtomX=     4.
 Integral derivatives from FoFJK, PRISM(SPDF).
 Do as many integral derivatives as possible in FoFJK.
 G2DrvN: MDV=   67108863584.
 G2DrvN: will do     5 centers at a time, making    1 passes.
 Calling FoFCou, ICntrl=  3107 FMM=F I1Cent=   0 AccDes= 0.00D+00.
 FoFJK:  IHMeth= 1 ICntrl=    3107 DoSepK=F KAlg= 0 I1Cent=           0 FoldK=F
 IRaf=         0 NMat=       1 IRICut=       1 DoRegI=T DoRafI=F ISym2E= 0 IDoP0=0 IntGTp=1.
 FoFCou: FMM=F IPFlag=           0 FMFlag=      100000 FMFlg1=           0
         NFxFlg=           0 DoJE=F BraDBF=F KetDBF=F FulRan=T
         wScrn=  0.000000 ICntrl=      3107 IOpCl=  0 I1Cent=           0 NGrid=           0
         NMat0=    1 NMatS0=      1 NMatT0=    0 NMatD0=    1 NMtDS0=    0 NMtDT0=    0
 Symmetry not used in FoFCou.
 End of G2Drv F.D. properties file   721 does not exist.
 End of G2Drv F.D. properties file   722 does not exist.
 End of G2Drv F.D. properties file   788 does not exist.
 Leave Link 1110 at Wed May 11 21:22:35 2022, MaxMem= 67108864000 cpu:               7.7 elap:               0.3
 (Enter /cm/shared/apps/gaussian/intel/EM64T/SSE4_2-enabled/binary//g16/l1002.exe)
 Minotr:  Closed shell wavefunction.
          IDoAtm=1111
          Direct CPHF calculation.
          Differentiating once with respect to electric field.
                with respect to dipole field.
          Differentiating once with respect to nuclear coordinates.
          Requested convergence is 1.0D-08 RMS, and 1.0D-07 maximum.
          Secondary convergence is 1.0D-12 RMS, and 1.0D-12 maximum.
          NewPWx=T KeepS1=T KeepF1=T KeepIn=T MapXYZ=F SortEE=F KeepMc=T.
 Keep R1 ints in memory in canonical form, NReq=6881551.
 FoFCou: FMM=F IPFlag=           0 FMFlag=           0 FMFlg1=           0
         NFxFlg=           0 DoJE=F BraDBF=F KetDBF=F FulRan=T
         wScrn=  0.000000 ICntrl=       600 IOpCl=  0 I1Cent=           0 NGrid=           0
         NMat0=    1 NMatS0=   1485 NMatT0=    0 NMatD0=    1 NMtDS0=    0 NMtDT0=    0
 Symmetry not used in FoFCou.
 Two-electron integral symmetry not used.
          MDV=   67108864000 using IRadAn=       1.
          Solving linear equations simultaneously, MaxMat=       0.
          There are    15 degrees of freedom in the 1st order CPHF.  IDoFFX=6 NUNeed=    15.
     12 vectors produced by pass  0 Test12= 3.55D-15 6.67D-09 XBig12= 3.59D+00 8.19D-01.
 AX will form    12 AO Fock derivatives at one time.
     12 vectors produced by pass  1 Test12= 3.55D-15 6.67D-09 XBig12= 3.98D-02 6.45D-02.
     12 vectors produced by pass  2 Test12= 3.55D-15 6.67D-09 XBig12= 1.31D-03 9.83D-03.
     12 vectors produced by pass  3 Test12= 3.55D-15 6.67D-09 XBig12= 2.18D-05 1.43D-03.
     12 vectors produced by pass  4 Test12= 3.55D-15 6.67D-09 XBig12= 2.64D-07 1.45D-04.
     12 vectors produced by pass  5 Test12= 3.55D-15 6.67D-09 XBig12= 1.48D-09 1.33D-05.
     10 vectors produced by pass  6 Test12= 3.55D-15 6.67D-09 XBig12= 1.07D-11 8.14D-07.
      3 vectors produced by pass  7 Test12= 3.55D-15 6.67D-09 XBig12= 3.73D-14 4.62D-08.
 InvSVY:  IOpt=1 It=  1 EMax= 8.88D-16
 Solved reduced A of dimension    85 with    12 vectors.
 FullF1:  Do perturbations      1 to      15.
 Saving first derivative matrices.
 End of Minotr F.D. properties file   721 does not exist.
 End of Minotr F.D. properties file   722 does not exist.
 End of Minotr F.D. properties file   788 does not exist.
 Leave Link 1002 at Wed May 11 21:22:35 2022, MaxMem= 67108864000 cpu:               7.7 elap:               0.3
 (Enter /cm/shared/apps/gaussian/intel/EM64T/SSE4_2-enabled/binary//g16/l811.exe)
 MDV= 67108864000.
 Form MO integral derivatives with frozen-active canonical formalism.
 MOERI=1 MOERIx=1 NAtoms=     4 NAtomX=     4.
 Discarding MO integrals.
 MO basis two electron integral derivatives will not be stored on disk.
 IAlg= 3 DoFC=T DoPWx=T Debug=F.
 Reordered first order wavefunction length =       568178
 In DefCFB: NBatch=  1 ICI= 13 ICA= 41 LFMax= 41
            Large arrays: LIAPS=     6216912 LIARS=     7857486 words.
 In StABat: MaxSiz= 39 MinSiz= 15 NAtomB=  2
 DoIAMN: NPSUse= 28.
 Leave Link  811 at Wed May 11 21:22:36 2022, MaxMem= 67108864000 cpu:              34.0 elap:               1.2
 (Enter /cm/shared/apps/gaussian/intel/EM64T/SSE4_2-enabled/binary//g16/l804.exe)
 Closed-shell transformation, MDV= 67108864000 ITran=4 ISComp=1.
 Semi-Direct transformation.
 ModeAB=           2 MOrb=            13 LenV=   67108647766
 LASXX=       829764 LTotXX=      829764 LenRXX=      829764
 LTotAB=      878137 MaxLAS=     1042470 LenRXY=     1042470
 NonZer=     1659528 LenScr=     3143680 LnRSAI=           0
 LnScr1=           0 LExtra=           0 Total=      5015914
 MaxDsk=          -1 SrtSym=           F ITran=            4
 DoSDTr:  NPSUse= 28
 JobTyp=0 Pass  1:  I=   1 to  13.
 (rs|ai) integrals will be sorted in core.
 Complete sort for first half transformation.
 First half transformation complete.
 Begin second half transformation for I=  10.
 Begin second half transformation for I=  10.
 Complete sort for second half transformation.
 Second half transformation complete.
 SymMOI:  orbitals are not symmetric.
 Spin components of T(2) and E(2):
     alpha-alpha T2 =       0.8620236752D-02 E2=     -0.3021775541D-01
     alpha-beta  T2 =       0.4771041644D-01 E2=     -0.1629432496D+00
     beta-beta   T2 =       0.8620236752D-02 E2=     -0.3021775541D-01
 ANorm=    0.1459418302D+01
 E2 =    -0.2233787604D+00 EUMP2 =    -0.16885174734787D+03
 Leave Link  804 at Wed May 11 21:22:36 2022, MaxMem= 67108864000 cpu:               7.4 elap:               0.3
 (Enter /cm/shared/apps/gaussian/intel/EM64T/SSE4_2-enabled/binary//g16/l1002.exe)
 Minotr:  Closed shell wavefunction.
          Computing MP2/KS-MP2 derivatives.
          Using Z-Vector for PSCF gradient.
          Skipping F1 and S1 gradient terms here.
          IDoAtm=1111
          Using MO integrals in the linear equations.
          Forming densities via direct SCF.
          Differentiating once with respect to electric field.
                with respect to dipole field.
          Differentiating once with respect to nuclear coordinates.
          Requested convergence is 1.0D-10 RMS, and 1.0D-09 maximum.
          NewPWx=F KeepS1=T KeepF1=T KeepIn=T MapXYZ=F SortEE=F KeepMc=T.
          MDV=   67108864000 using IRadAn=       5.
          Solving linear equations separately, MaxMat=       0.
          There are     1 degrees of freedom in the 1st order CPHF.  IDoFFX=0 NUNeed=     1.
 FoFJK:  IHMeth= 1 ICntrl=       0 DoSepK=F KAlg= 0 I1Cent=           0 FoldK=F
 IRaf=         0 NMat=       1 IRICut=       1 DoRegI=T DoRafI=F ISym2E= 0 IDoP0=0 IntGTp=1.
 FoFCou: FMM=F IPFlag=           0 FMFlag=      100000 FMFlg1=           0
         NFxFlg=           0 DoJE=F BraDBF=F KetDBF=F FulRan=T
         wScrn=  0.000000 ICntrl=         0 IOpCl=  0 I1Cent=           0 NGrid=           0
         NMat0=    1 NMatS0=      1 NMatT0=    0 NMatD0=    1 NMtDS0=    0 NMtDT0=    0
 Symmetry not used in FoFCou.
 LinEq1:  Iter=  0 NonCon=     1 RMS=8.19D-03 Max=9.10D-02 NDo=     1
 LinEq1:  Iter=  1 NonCon=     1 RMS=2.16D-03 Max=1.68D-02 NDo=     1
 LinEq1:  Iter=  2 NonCon=     1 RMS=7.16D-04 Max=6.72D-03 NDo=     1
 LinEq1:  Iter=  3 NonCon=     1 RMS=2.95D-04 Max=3.09D-03 NDo=     1
 LinEq1:  Iter=  4 NonCon=     1 RMS=7.03D-05 Max=6.10D-04 NDo=     1
 LinEq1:  Iter=  5 NonCon=     1 RMS=8.11D-06 Max=6.17D-05 NDo=     1
 LinEq1:  Iter=  6 NonCon=     1 RMS=9.86D-07 Max=1.10D-05 NDo=     1
 LinEq1:  Iter=  7 NonCon=     1 RMS=1.47D-07 Max=1.73D-06 NDo=     1
 LinEq1:  Iter=  8 NonCon=     1 RMS=2.18D-08 Max=1.85D-07 NDo=     1
 LinEq1:  Iter=  9 NonCon=     1 RMS=3.31D-09 Max=2.52D-08 NDo=     1
 LinEq1:  Iter= 10 NonCon=     1 RMS=4.38D-10 Max=2.92D-09 NDo=     1
 LinEq1:  Iter= 11 NonCon=     0 RMS=6.07D-11 Max=3.39D-10 NDo=     1
 Linear equations converged to 1.000D-10 1.000D-09 after    11 iterations.
 End of Minotr F.D. properties file   721 does not exist.
 End of Minotr F.D. properties file   722 does not exist.
 End of Minotr F.D. properties file   788 does not exist.
 Leave Link 1002 at Wed May 11 21:22:37 2022, MaxMem= 67108864000 cpu:              16.6 elap:               0.6
 (Enter /cm/shared/apps/gaussian/intel/EM64T/SSE4_2-enabled/binary//g16/l1102.exe)
 Use density number 2.
 Symmetrizing basis deriv contribution to polar:
 IMax=3 JMax=2 DiffMx= 0.00D+00
 Leave Link 1102 at Wed May 11 21:22:37 2022, MaxMem= 67108864000 cpu:               1.8 elap:               0.1
 (Enter /cm/shared/apps/gaussian/intel/EM64T/SSE4_2-enabled/binary//g16/l1110.exe)
 Forming Gx(P) for generalized density number  2 NAtomX=     4.
 Integral derivatives from FoFJK, PRISM(SPDF).
 Do as many integral derivatives as possible in FoFJK.
 G2DrvN: MDV=   67108863584.
 G2DrvN: will do     5 centers at a time, making    1 passes.
 Calling FoFCou, ICntrl=  3107 FMM=F I1Cent=   0 AccDes= 0.00D+00.
 FoFJK:  IHMeth= 1 ICntrl=    3107 DoSepK=F KAlg= 0 I1Cent=           0 FoldK=F
 IRaf=         0 NMat=       1 IRICut=       1 DoRegI=T DoRafI=F ISym2E= 0 IDoP0=0 IntGTp=1.
 FoFCou: FMM=F IPFlag=           0 FMFlag=      100000 FMFlg1=           0
         NFxFlg=           0 DoJE=F BraDBF=F KetDBF=F FulRan=T
         wScrn=  0.000000 ICntrl=      3107 IOpCl=  0 I1Cent=           0 NGrid=           0
         NMat0=    1 NMatS0=      1 NMatT0=    0 NMatD0=    1 NMtDS0=    0 NMtDT0=    0
 Symmetry not used in FoFCou.
 End of G2Drv F.D. properties file   721 does not exist.
 End of G2Drv F.D. properties file   722 does not exist.
 End of G2Drv F.D. properties file   788 does not exist.
 Leave Link 1110 at Wed May 11 21:22:37 2022, MaxMem= 67108864000 cpu:               6.6 elap:               0.3
 (Enter /cm/shared/apps/gaussian/intel/EM64T/SSE4_2-enabled/binary//g16/l1112.exe)
 MP22nd: MDV=   67108864000
 This link is doing NAtomX=     4 total of    15 degrees of freedom.
 Using ON3 I/O method in MakUI.
 Using Ix for Sx.
 Using OV2 memory method for fx*t*t/D, MaxI=    13 DoOO2=F NP=  28.
 R2 and R3 integrals will be kept in memory, NReq=     3026710.
 FoFCou: FMM=F IPFlag=           0 FMFlag=           0 FMFlg1=           0
         NFxFlg=           0 DoJE=F BraDBF=F KetDBF=F FulRan=T
         wScrn=  0.000000 ICntrl=       600 IOpCl=  0 I1Cent=           0 NGrid=           0
         NMat0=    1 NMatS0=      1 NMatT0=    0 NMatD0=    1 NMtDS0=    0 NMtDT0=    0
 Symmetry not used in FoFCou.
 DD1Dir will call FoFMem   1 times, MxPair=       182
 NAB=    91 NAA=     0 NBB=     0.
 Symmetry is being used.
 FoFJK:  IHMeth= 1 ICntrl=       0 DoSepK=F KAlg= 0 I1Cent=           0 FoldK=F
 IRaf=         0 NMat=      15 IRICut=      37 DoRegI=T DoRafI=T ISym2E= 2 IDoP0=0 IntGTp=1.
 Discarding MO integrals.
 Leave Link 1112 at Wed May 11 21:22:39 2022, MaxMem= 67108864000 cpu:              36.9 elap:               1.4
 (Enter /cm/shared/apps/gaussian/intel/EM64T/SSE4_2-enabled/binary//g16/l601.exe)
 Copying SCF densities to generalized density rwf, IOpCl= 0 IROHF=0.

 **********************************************************************

            Population analysis using the SCF density.

 **********************************************************************

 Orbital symmetries:
       Occupied  (A) (A) (A) (A) (A) (A) (A) (A) (A) (A) (A) (A)
                 (A)
       Virtual   (A) (A) (A) (A) (A) (A) (A) (A) (A) (A) (A) (A)
                 (A) (A) (A) (A) (A) (A) (A) (A) (A) (A) (A) (A)
                 (A) (A) (A) (A) (A) (A) (A) (A) (A) (A) (A) (A)
                 (A) (A) (A) (A) (A)
 The electronic state is 1-A.
 Alpha  occ. eigenvalues --   -5.64048  -3.63932  -3.63631  -3.63539  -1.86986
 Alpha  occ. eigenvalues --   -1.24882  -1.24311  -1.21100  -1.20142  -1.20141
 Alpha  occ. eigenvalues --   -1.17959  -1.07467  -1.01490
 Alpha virt. eigenvalues --   -0.51663  -0.33330  -0.32588  -0.28622  -0.21878
 Alpha virt. eigenvalues --   -0.17286  -0.16738  -0.15281  -0.14752  -0.13524
 Alpha virt. eigenvalues --   -0.12483  -0.11419  -0.09212  -0.08766  -0.06896
 Alpha virt. eigenvalues --   -0.05888  -0.05791   0.02833   0.05115   0.23973
 Alpha virt. eigenvalues --    0.43655   0.43924   0.44060   0.45682   0.56467
 Alpha virt. eigenvalues --    0.88511   0.99303   0.99661   1.01748   1.01995
 Alpha virt. eigenvalues --    1.02606   1.07969   1.10168   1.25208   2.22679
 Alpha virt. eigenvalues --    4.02063  15.26489  41.36028  41.36058  41.42299
 Alpha virt. eigenvalues --   81.24425
          Condensed to atoms (all electrons):
               1          2          3          4
     1  Hg  18.175724   0.103517  -0.002413  -0.002385
     2  O    0.103517   6.340671   0.236842   0.237224
     3  H   -0.002413   0.236842   0.175339  -0.006313
     4  H   -0.002385   0.237224  -0.006313   0.175323
 Mulliken charges:
               1
     1  Hg   1.725557
     2  O   -0.918254
     3  H    0.596546
     4  H    0.596152
 Sum of Mulliken charges =   2.00000
 Mulliken charges with hydrogens summed into heavy atoms:
               1
     1  Hg   1.725557
     2  O    0.274443
         Mulliken charges condensed to fragments:
      1      1.725557
      2      0.274443
 APT charges:
               1
     1  Hg   1.752640
     2  O   -0.690531
     3  H    0.469298
     4  H    0.468593
 Sum of APT charges =   2.00000
 APT charges with hydrogens summed into heavy atoms:
               1
     1  Hg   1.752640
     2  O    0.247360
         APT charges condensed to fragments:
      1      1.752640
      2      0.247360
 Electronic spatial extent (au):  <R**2>=            152.3390
 Charge=              2.0000 electrons
 Dipole moment (field-independent basis, Debye):
    X=             -2.6461    Y=              0.0098    Z=              1.4003  Tot=              2.9937
 Quadrupole moment (field-independent basis, Debye-Ang):
   XX=             -5.4509   YY=            -18.9092   ZZ=            -22.8068
   XY=             -0.0214   XZ=             -3.3879   YZ=             -0.0011
 Traceless Quadrupole moment (field-independent basis, Debye-Ang):
   XX=             10.2714   YY=             -3.1869   ZZ=             -7.0845
   XY=             -0.0214   XZ=             -3.3879   YZ=             -0.0011
 Octapole moment (field-independent basis, Debye-Ang**2):
  XXX=            -18.5000  YYY=              0.0201  ZZZ=              0.6835  XYY=             -0.1767
  XXY=              0.0498  XXZ=              7.9681  XZZ=              8.5347  YZZ=              0.0003
  YYZ=              0.9542  XYZ=              0.0020
 Hexadecapole moment (field-independent basis, Debye-Ang**3):
 XXXX=            -36.1449 YYYY=            -14.3104 ZZZZ=            -16.2655 XXXY=             -0.1136
 XXXZ=            -18.9858 YYYX=             -0.0442 YYYZ=              0.0013 ZZZX=             -1.6269
 ZZZY=             -0.0017 XXYY=             -8.3132 XXZZ=            -27.9113 YYZZ=             -5.3212
 XXYZ=             -0.0042 YYXZ=             -2.2758 ZZXY=              0.0004
 N-N= 4.568163833832D+01 E-N=-4.375948509107D+02  KE= 6.456740952433D+01
  Exact polarizability:  20.461  -0.013  13.320   0.393   0.003  11.413
 Approx polarizability:  11.521  -0.008   9.754  -0.092   0.002   7.534
 No NMR shielding tensors so no spin-rotation constants.
 Leave Link  601 at Wed May 11 21:22:39 2022, MaxMem= 67108864000 cpu:               3.3 elap:               0.1
 (Enter /cm/shared/apps/gaussian/intel/EM64T/SSE4_2-enabled/binary//g16/l701.exe)
 ... and contract with generalized density number  2.
 Compute integral second derivatives.
   1 Symmetry operations used in ECPInt.
 ECPInt:  NShTT=     276 NPrTT=     764 LenC2=     277 LenP2D=     735.
 LDataN:  DoStor=T MaxTD1= 9 Len=  602
 Leave Link  701 at Wed May 11 21:22:40 2022, MaxMem= 67108864000 cpu:              27.1 elap:               1.0
 (Enter /cm/shared/apps/gaussian/intel/EM64T/SSE4_2-enabled/binary//g16/l702.exe)
 L702 exits ... SP integral derivatives will be done elsewhere.
 Leave Link  702 at Wed May 11 21:22:40 2022, MaxMem= 67108864000 cpu:               1.0 elap:               0.1
 (Enter /cm/shared/apps/gaussian/intel/EM64T/SSE4_2-enabled/binary//g16/l703.exe)
 Integral derivatives from FoFJK, PRISM(SPDF).
 Compute integral second derivatives, UseDBF=F ICtDFT=           0.
 Calling FoFJK, ICntrl=  10100127 FMM=F ISym2X=0 I1Cent= 0 IOpClX= 0 NMat=1 NMatS=1 NMatT=0.
 FoFJK:  IHMeth= 1 ICntrl=10100127 DoSepK=F KAlg= 0 I1Cent=           0 FoldK=F
 IRaf=         0 NMat=       1 IRICut=       1 DoRegI=T DoRafI=F ISym2E= 0 IDoP0=0 IntGTp=1.
 FoFCou: FMM=F IPFlag=           0 FMFlag=      100000 FMFlg1=         800
         NFxFlg=           0 DoJE=F BraDBF=F KetDBF=F FulRan=T
         wScrn=  0.000000 ICntrl=  10100127 IOpCl=  0 I1Cent=           0 NGrid=           0
         NMat0=    1 NMatS0=      1 NMatT0=    0 NMatD0=    1 NMtDS0=    0 NMtDT0=    0
 Symmetry not used in FoFCou.
 Leave Link  703 at Wed May 11 21:22:41 2022, MaxMem= 67108864000 cpu:              10.9 elap:               0.4
 (Enter /cm/shared/apps/gaussian/intel/EM64T/SSE4_2-enabled/binary//g16/l716.exe)
 Dipole        =-1.23600756D+00 3.56803622D-03 5.10050307D-01
 Polarizability= 2.04607024D+01-1.33447775D-02 1.33195448D+01
                 3.92808171D-01 2.85115278D-03 1.14134919D+01
 Full mass-weighted force constant matrix:
 Low frequencies --- -389.6400 -127.3697 -105.9953   -0.0001   -0.0001   -0.0001
 Low frequencies ---  540.7084  673.2599  790.1577
 Diagonal vibrational polarizability:
        3.7790647       3.6630535      25.2723014
 Harmonic frequencies (cm**-1), IR intensities (KM/Mole), Raman scattering
 activities (A**4/AMU), depolarization ratios for plane and unpolarized
 incident light, reduced masses (AMU), force constants (mDyne/A),
 and normal coordinates:
                      1                      2                      3
                      A                      A                      A
 Frequencies --    540.6193               672.7271               783.8093
 Red. masses --      6.2215                 1.2073                 1.0932
 Frc consts  --      1.0713                 0.3219                 0.3957
 IR Inten    --     52.5586               375.1298                64.4204
  Atom  AN      X      Y      Z        X      Y      Z        X      Y      Z
     1  80    -0.05   0.00  -0.00    -0.01  -0.00   0.00    -0.00   0.00   0.00
     2   8     0.56  -0.00   0.09     0.05   0.00  -0.10     0.00  -0.07  -0.00
     3   1     0.32   0.03  -0.49     0.32  -0.04   0.60     0.65   0.27   0.15
     4   1     0.29  -0.02  -0.50     0.38   0.02   0.62    -0.62   0.28  -0.09
                      4                      5                      6
                      A                      A                      A
 Frequencies --   1725.6588              3563.1071              3667.4565
 Red. masses --      1.0829                 1.0422                 1.0856
 Frc consts  --      1.9000                 7.7961                 8.6029
 IR Inten    --    110.6105               411.6834               436.8863
  Atom  AN      X      Y      Z        X      Y      Z        X      Y      Z
     1  80    -0.00   0.00   0.00    -0.00   0.00  -0.00     0.00   0.00   0.00
     2   8    -0.07  -0.00   0.02     0.04  -0.01  -0.02    -0.01  -0.07   0.00
     3   1     0.54   0.40  -0.21    -0.39   0.69   0.20    -0.29   0.46   0.17
     4   1     0.53  -0.40  -0.21    -0.27  -0.49   0.13     0.41   0.67  -0.23

 -------------------
 - Thermochemistry -
 -------------------
 Temperature   298.150 Kelvin.  Pressure   1.00000 Atm.
 Atom     1 has atomic number 80 and mass 201.97060
 Atom     2 has atomic number  8 and mass  15.99491
 Atom     3 has atomic number  1 and mass   1.00783
 Atom     4 has atomic number  1 and mass   1.00783
 Molecular mass:   219.98116 amu.
 Principal axes and moments of inertia in atomic units:
                           1         2         3
     Eigenvalues --     5.12596 263.54827 267.61133
           X            0.99990  -0.00010  -0.01385
           Y            0.00010   1.00000  -0.00012
           Z            0.01385   0.00012   0.99990
 This molecule is an asymmetric top.
 Rotational symmetry number  1.
 Rotational temperatures (Kelvin)     16.89713     0.32865     0.32366
 Rotational constants (GHZ):         352.07899     6.84786     6.74389
 Zero-point vibrational energy      65515.8 (Joules/Mol)
                                   15.65864 (Kcal/Mol)
 Warning -- explicit consideration of   1 degrees of freedom as
           vibrations may cause significant error
 Vibrational temperatures:    777.83   967.90  1127.73  2482.84  5126.52
          (Kelvin)           5276.65
 
 Zero-point correction=                           0.024954 (Hartree/Particle)
 Thermal correction to Energy=                    0.028191
 Thermal correction to Enthalpy=                  0.029135
 Thermal correction to Gibbs Free Energy=        -0.001138
 Sum of electronic and zero-point Energies=           -168.826794
 Sum of electronic and thermal Energies=              -168.823556
 Sum of electronic and thermal Enthalpies=            -168.822612
 Sum of electronic and thermal Free Energies=         -168.852886
 
                     E (Thermal)             CV                S
                      KCal/Mol        Cal/Mol-Kelvin    Cal/Mol-Kelvin
 Total                   17.690              8.715             63.717
 Electronic               0.000              0.000              0.000
 Translational            0.889              2.981             42.068
 Rotational               0.889              2.981             20.519
 Vibrational             15.913              2.754              1.129
 Vibration     1          0.896              1.160              0.564
                       Q            Log10(Q)             Ln(Q)
 Total Bot       0.333918D+01          0.523640          1.205725
 Total V=0       0.100347D+13         12.001503         27.634482
 Vib (Bot)       0.382553D-11        -11.417308        -26.289323
 Vib (Bot)    1  0.292890D+00         -0.533296         -1.227959
 Vib (V=0)       0.114962D+01          0.060556          0.139435
 Vib (V=0)    1  0.107947D+01          0.033210          0.076469
 Electronic      0.100000D+01          0.000000          0.000000
 Translational   0.128243D+09          8.108032         18.669434
 Rotational      0.680637D+04          3.832915          8.825614
 
                      file 'w1s1.log' Now we use Def2-QZVPPD, but it was opt at: 
 ---' #p ZORA-SR+SO PBE QZ4P'---
                                                             IR Spectrum
 
     3   3                                                               1                                                           
     6   5                                                               7                               7   6    5                  
     6   6                                                               2                               8   7    4                  
     7   3                                                               6                               4   3    1                  
 
     X   X                                                               X                               X   X    X                  
     X   X                                                               X                               X   X    X                  
     X   X                                                               X                               X   X                       
     X   X                                                               X                                   X                       
     X   X                                                               X                                   X                       
     X   X                                                                                                   X                       
     X   X                                                                                                   X                       
     X   X                                                                                                   X                       
     X   X                                                                                                   X                       
     X   X                                                                                                   X                       
     X   X                                                                                                   X                       
     X   X                                                                                                   X                       
     X   X                                                                                                   X                       
     X   X                                                                                                   X                       
     X   X                                                                                                   X                       
     X   X                                                                                                   X                       
     X   X                                                                                                   X                       
     X   X                                                                                                                           
     X   X                                                                                                                           
     X                                                                                                                               
 
 ***** Axes restored to original set *****
 -------------------------------------------------------------------
 Center     Atomic                   Forces (Hartrees/Bohr)
 Number     Number              X              Y              Z
 -------------------------------------------------------------------
      1       80          -0.026855255   -0.003859630   -0.000027795
      2        8           0.012218623    0.016992387    0.002021983
      3        1           0.006724187   -0.006836635    0.010437364
      4        1           0.007912444   -0.006296122   -0.012431552
 -------------------------------------------------------------------
 Cartesian Forces:  Max     0.026855255 RMS     0.011675868
 Z-matrix is all fixed cartesians, so copy forces.
 Force constants in Cartesian coordinates: 
                1             2             3             4             5 
      1  0.194935D+00
      2 -0.252721D-02 -0.411932D-02
      3 -0.825921D-05  0.537885D-04  0.500763D-02
      4 -0.167697D+00  0.997338D-02 -0.147272D-04  0.486461D+00
      5 -0.744853D-02 -0.281032D-02 -0.686175D-04  0.137406D+00  0.986961D-01
      6  0.125029D-03 -0.814143D-04 -0.192743D-01 -0.550867D-02  0.998813D-03
      7 -0.136362D-01 -0.378325D-02 -0.107911D-01 -0.158289D+00 -0.651846D-01
      8  0.497317D-02  0.347492D-02  0.147816D-02 -0.736556D-01 -0.492266D-01
      9  0.858626D-03 -0.113895D-02  0.711951D-02 -0.142144D+00 -0.725503D-01
     10 -0.136021D-01 -0.366292D-02  0.108141D-01 -0.160476D+00 -0.647729D-01
     11  0.500256D-02  0.345472D-02 -0.146334D-02 -0.737238D-01 -0.466591D-01
     12 -0.975395D-03  0.116658D-02  0.714712D-02  0.147668D+00  0.716201D-01
                6             7             8             9            10 
      6  0.672614D+00
      7 -0.174888D+00  0.154961D+00
      8 -0.107438D+00  0.659081D-01  0.378135D-01
      9 -0.323042D+00  0.163514D+00  0.900541D-01  0.341822D+00
     10  0.180272D+00  0.169638D-01  0.277436D-02 -0.222281D-01  0.157114D+00
     11  0.106520D+00  0.305976D-02  0.793818D-02 -0.163648D-01  0.656615D-01
     12 -0.330298D+00  0.221653D-01  0.159054D-01 -0.258994D-01 -0.168858D+00
               11            12 
     11  0.352662D-01
     12 -0.886921D-01  0.349050D+00
 Leave Link  716 at Wed May 11 21:22:41 2022, MaxMem= 67108864000 cpu:               2.7 elap:               0.1
 (Enter /cm/shared/apps/gaussian/intel/EM64T/SSE4_2-enabled/binary//g16/l103.exe)

 GradGradGradGradGradGradGradGradGradGradGradGradGradGradGradGradGradGrad
 Berny optimization.
 Search for a local minimum.
 Step number   1 out of a maximum of    2
 All quantities printed in internal units (Hartrees-Bohrs-Radians)
 Second derivative matrix not updated -- analytic derivatives used.
 The second derivative matrix:
                          X1        Y1        Z1        X2        Y2
           X1           0.19494
           Y1          -0.00253  -0.00412
           Z1          -0.00001   0.00005   0.00501
           X2          -0.16770   0.00997  -0.00001   0.48646
           Y2          -0.00745  -0.00281  -0.00007   0.13741   0.09870
           Z2           0.00013  -0.00008  -0.01927  -0.00551   0.00100
           X3          -0.01364  -0.00378  -0.01079  -0.15829  -0.06518
           Y3           0.00497   0.00347   0.00148  -0.07366  -0.04923
           Z3           0.00086  -0.00114   0.00712  -0.14214  -0.07255
           X4          -0.01360  -0.00366   0.01081  -0.16048  -0.06477
           Y4           0.00500   0.00345  -0.00146  -0.07372  -0.04666
           Z4          -0.00098   0.00117   0.00715   0.14767   0.07162
                          Z2        X3        Y3        Z3        X4
           Z2           0.67261
           X3          -0.17489   0.15496
           Y3          -0.10744   0.06591   0.03781
           Z3          -0.32304   0.16351   0.09005   0.34182
           X4           0.18027   0.01696   0.00277  -0.02223   0.15711
           Y4           0.10652   0.00306   0.00794  -0.01636   0.06566
           Z4          -0.33030   0.02217   0.01591  -0.02590  -0.16886
                          Y4        Z4
           Y4           0.03527
           Z4          -0.08869   0.34905
 ITU=  0
     Eigenvalues ---    0.04168   0.04534   0.12197   0.27463   0.84330
     Eigenvalues ---    0.97245
 Quadratic step=4.967D-01 exceeds max=3.000D-01 adjusted using Lamda=-3.186D-02.
 Angle between NR and scaled steps=   6.02 degrees.
 Angle between quadratic step and forces=  42.34 degrees.
 Linear search not attempted -- first point.
 B after Tr=    -0.043690   -0.018940    0.000375
         Rot=    0.999958    0.000017   -0.000030   -0.009120 Ang=   1.05 deg.
 Variable       Old X    -DE/DX   Delta X   Delta X   Delta X     New X
                                 (Linear)    (Quad)   (Total)
    X1       -0.42543  -0.02686   0.00000  -0.06357  -0.10722  -0.53265
    Y1        0.02029  -0.00386   0.00000  -0.01819  -0.04605  -0.02576
    Z1       -0.00000  -0.00003   0.00000   0.00009   0.00049   0.00049
    X2        3.44190   0.01222   0.00000   0.02536  -0.01839   3.42351
    Y2       -0.17039   0.01699   0.00000   0.14215   0.18646   0.01607
    Z2        0.00000   0.00202   0.00000   0.00031   0.00048   0.00048
    X3        4.39540   0.00672   0.00000   0.11025   0.06187   4.45727
    Y3        0.35396  -0.00684   0.00000  -0.13330  -0.07004   0.28393
    Z3        1.50974   0.01044   0.00000   0.04695   0.04704   1.55678
    X4        4.39540   0.00791   0.00000   0.11195   0.06374   4.45914
    Y4        0.33507  -0.00630   0.00000  -0.13355  -0.07037   0.26470
    Z4       -1.50974  -0.01243   0.00000  -0.04810  -0.04801  -1.55775
         Item               Value     Threshold  Converged?
 Maximum Force            0.026855     0.000450     NO 
 RMS     Force            0.011676     0.000300     NO 
 Maximum Displacement     0.186455     0.001800     NO 
 RMS     Displacement     0.076913     0.001200     NO 
 Predicted change in Energy=-5.958087D-03
 GradGradGradGradGradGradGradGradGradGradGradGradGradGradGradGradGradGrad

 Leave Link  103 at Wed May 11 21:22:41 2022, MaxMem= 67108864000 cpu:               0.9 elap:               0.1
 (Enter /cm/shared/apps/gaussian/intel/EM64T/SSE4_2-enabled/binary//g16/l9999.exe)

 ----------------------------------------------------------------------

 Electric dipole moment (input orientation):
 (Debye = 10**-18 statcoulomb cm , SI units = C m)
                  (au)            (Debye)         (10**-30 SI)
   Tot        0.133712D+01      0.339861D+01      0.113365D+02
   x          0.124408D+01      0.316212D+01      0.105477D+02
   y          0.490056D+00      0.124560D+01      0.415487D+01
   z          0.191772D-04      0.487435D-04      0.162591D-03

 Dipole polarizability, Alpha (input orientation).
 (esu units = cm**3 , SI units = C**2 m**2 J**-1)
 Alpha(0;0):
               (au)            (10**-24 esu)      (10**-40 SI)
   iso        0.150646D+02      0.223234D+01      0.248381D+01
   aniso      0.828879D+01      0.122827D+01      0.136664D+01
   xx         0.204457D+02      0.302974D+01      0.337104D+01
   yx        -0.538437D+00     -0.797881D-01     -0.887762D-01
   yy         0.114286D+02      0.169355D+01      0.188433D+01
   zx         0.163091D-01      0.241676D-02      0.268901D-02
   zy         0.158377D-01      0.234690D-02      0.261128D-02
   zz         0.133194D+02      0.197373D+01      0.219607D+01

 ----------------------------------------------------------------------

 Dipole orientation:
    80         -0.06407138          0.16263886         -0.38839338
     8          0.52047414         -1.32117258          3.13995693
     1         -0.93492576         -1.74571431          4.21930490
     1          1.88089388         -0.65542642          4.21233570

 Electric dipole moment (dipole orientation):
 (Debye = 10**-18 statcoulomb cm , SI units = C m)
                  (au)            (Debye)         (10**-30 SI)
   Tot        0.133712D+01      0.339861D+01      0.113365D+02
   x          0.000000D+00      0.000000D+00      0.000000D+00
   y          0.000000D+00      0.000000D+00      0.000000D+00
   z          0.133712D+01      0.339861D+01      0.113365D+02

 Dipole polarizability, Alpha (dipole orientation).
 (esu units = cm**3 , SI units = C**2 m**2 J**-1)
 Alpha(0;0):
               (au)            (10**-24 esu)      (10**-40 SI)
   iso        0.150646D+02      0.223234D+01      0.248381D+01
   aniso      0.828879D+01      0.122827D+01      0.136664D+01
   xx         0.132835D+02      0.196841D+01      0.219015D+01
   yx         0.100069D+00      0.148286D-01      0.164991D-01
   yy         0.130430D+02      0.193278D+01      0.215050D+01
   zx         0.125180D+01      0.185498D+00      0.206395D+00
   zy        -0.323490D+01     -0.479363D+00     -0.533363D+00
   zz         0.188673D+02      0.279584D+01      0.311079D+01

 ----------------------------------------------------------------------
 1\1\GINC-CTCP002\Freq\RMP2-Full\SDDAll\H2Hg1O1(2+)\FLOREZ\11-May-2022\
 0\\#p MP2(full) SDDAll freq\\file 'w1s1.log' Now we use Def2-QZVPPD, b
 ut it was opt at: ---' #p ZORA-SR+SO PBE QZ4P'---\\2,1\Hg,-0.22513,0.0
 10739,0.\O,1.821376,-0.090165,0.\H,2.325945,0.18731,0.79892\H,2.325945
 ,0.17731,-0.79892\\Version=ES64L-G16RevA.03\State=1-A\HF=-168.6283686\
 MP2=-168.8517473\RMSD=1.743e-09\RMSF=1.168e-02\ZeroPoint=0.0249536\The
 rmal=0.0281912\Dipole=1.2440754,0.4900562,0.0000192\DipoleDeriv=1.9188
 535,0.003127,0.0002136,0.0380958,1.6844488,-0.0002761,-0.0005631,-0.00
 0247,1.6546172,-0.7419077,0.0495023,-0.0001086,-0.1273371,-0.627321,0.
 00017,0.0013302,-0.000431,-0.7023647,0.4120124,-0.0257842,0.0624996,0.
 0461451,0.4714437,0.0010711,0.2697842,-0.0154337,0.5244381,0.4110418,-
 0.0268451,-0.0626046,0.0430962,0.4714284,-0.000965,-0.2705513,0.016111
 7,0.5233095\Polar=20.4456787,-0.5384365,11.4286474,0.0163091,0.0158377
 ,13.319413\PG=C01 [X(H2Hg1O1)]\NImag=0\\0.19493522,-0.00252721,-0.0041
 1932,-0.00000826,0.00005379,0.00500763,-0.16769693,0.00997338,-0.00001
 473,0.48646121,-0.00744853,-0.00281032,-0.00006862,0.13740607,0.098696
 08,0.00012503,-0.00008141,-0.01927426,-0.00550867,0.00099881,0.6726139
 5,-0.01363623,-0.00378325,-0.01079111,-0.15828873,-0.06518462,-0.17488
 807,0.15496114,0.00497317,0.00347492,0.00147816,-0.07365565,-0.0492266
 2,-0.10743769,0.06590812,0.03781352,0.00085863,-0.00113895,0.00711951,
 -0.14214443,-0.07255034,-0.32304219,0.16351388,0.09005412,0.34182207,-
 0.01360205,-0.00366292,0.01081410,-0.16047554,-0.06477292,0.18027171,0
 .01696382,0.00277436,-0.02222807,0.15711377,0.00500256,0.00345472,-0.0
 0146334,-0.07372379,-0.04665913,0.10652029,0.00305976,0.00793818,-0.01
 636484,0.06566147,0.03526623,-0.00097540,0.00116658,0.00714712,0.14766
 783,0.07162014,-0.33029750,0.02216530,0.01590541,-0.02589939,-0.168857
 74,-0.08869212,0.34904977\\0.02685525,0.00385963,0.00002780,-0.0122186
 2,-0.01699239,-0.00202198,-0.00672419,0.00683663,-0.01043736,-0.007912
 44,0.00629612,0.01243155\\\@


 BRING ME INTO THE COMPANY OF THOSE WHO SEEK TRUTH,
 AND DELIVER ME FROM THOSE WHO HAVE FOUND IT.
 Job cpu time:       0 days  0 hours  3 minutes 46.6 seconds.
 Elapsed time:       0 days  0 hours  0 minutes  8.9 seconds.
 File lengths (MBytes):  RWF=    125 Int=      0 D2E=      0 Chk=      2 Scr=      1
 Normal termination of Gaussian 16 at Wed May 11 21:22:41 2022.
