 Entering Gaussian System, Link 0=g16
 Initial command:
 /cm/shared/apps/gaussian/intel/EM64T/SSE4_2-enabled/binary//g16/l1.exe "/scratch/florez/25750/Gau-15335.inp" -scrdir="/scratch/florez/25750/"
 Entering Link 1 = /cm/shared/apps/gaussian/intel/EM64T/SSE4_2-enabled/binary//g16/l1.exe PID=     15337.
  
 Copyright (c) 1988,1990,1992,1993,1995,1998,2003,2009,2016,
            Gaussian, Inc.  All Rights Reserved.
  
 This is part of the Gaussian(R) 16 program.  It is based on
 the Gaussian(R) 09 system (copyright 2009, Gaussian, Inc.),
 the Gaussian(R) 03 system (copyright 2003, Gaussian, Inc.),
 the Gaussian(R) 98 system (copyright 1998, Gaussian, Inc.),
 the Gaussian(R) 94 system (copyright 1995, Gaussian, Inc.),
 the Gaussian 92(TM) system (copyright 1992, Gaussian, Inc.),
 the Gaussian 90(TM) system (copyright 1990, Gaussian, Inc.),
 the Gaussian 88(TM) system (copyright 1988, Gaussian, Inc.),
 the Gaussian 86(TM) system (copyright 1986, Carnegie Mellon
 University), and the Gaussian 82(TM) system (copyright 1983,
 Carnegie Mellon University). Gaussian is a federally registered
 trademark of Gaussian, Inc.
  
 This software contains proprietary and confidential information,
 including trade secrets, belonging to Gaussian, Inc.
  
 This software is provided under written license and may be
 used, copied, transmitted, or stored only in accord with that
 written license.
  
 The following legend is applicable only to US Government
 contracts under FAR:
  
                    RESTRICTED RIGHTS LEGEND
  
 Use, reproduction and disclosure by the US Government is
 subject to restrictions as set forth in subparagraphs (a)
 and (c) of the Commercial Computer Software - Restricted
 Rights clause in FAR 52.227-19.
  
 Gaussian, Inc.
 340 Quinnipiac St., Bldg. 40, Wallingford CT 06492
  
  
 ---------------------------------------------------------------
 Warning -- This program may not be used in any manner that
 competes with the business of Gaussian, Inc. or will provide
 assistance to any competitor of Gaussian, Inc.  The licensee
 of this program is prohibited from giving any competitor of
 Gaussian, Inc. access to this program.  By using this program,
 the user acknowledges that Gaussian, Inc. is engaged in the
 business of creating and licensing software in the field of
 computational chemistry and represents and warrants to the
 licensee that it is not a competitor of Gaussian, Inc. and that
 it will not use this program in any manner prohibited above.
 ---------------------------------------------------------------
  

 Cite this work as:
 Gaussian 16, Revision A.03,
 M. J. Frisch, G. W. Trucks, H. B. Schlegel, G. E. Scuseria, 
 M. A. Robb, J. R. Cheeseman, G. Scalmani, V. Barone, 
 G. A. Petersson, H. Nakatsuji, X. Li, M. Caricato, A. V. Marenich, 
 J. Bloino, B. G. Janesko, R. Gomperts, B. Mennucci, H. P. Hratchian, 
 J. V. Ortiz, A. F. Izmaylov, J. L. Sonnenberg, D. Williams-Young, 
 F. Ding, F. Lipparini, F. Egidi, J. Goings, B. Peng, A. Petrone, 
 T. Henderson, D. Ranasinghe, V. G. Zakrzewski, J. Gao, N. Rega, 
 G. Zheng, W. Liang, M. Hada, M. Ehara, K. Toyota, R. Fukuda, 
 J. Hasegawa, M. Ishida, T. Nakajima, Y. Honda, O. Kitao, H. Nakai, 
 T. Vreven, K. Throssell, J. A. Montgomery, Jr., J. E. Peralta, 
 F. Ogliaro, M. J. Bearpark, J. J. Heyd, E. N. Brothers, K. N. Kudin, 
 V. N. Staroverov, T. A. Keith, R. Kobayashi, J. Normand, 
 K. Raghavachari, A. P. Rendell, J. C. Burant, S. S. Iyengar, 
 J. Tomasi, M. Cossi, J. M. Millam, M. Klene, C. Adamo, R. Cammi, 
 J. W. Ochterski, R. L. Martin, K. Morokuma, O. Farkas, 
 J. B. Foresman, and D. J. Fox, Gaussian, Inc., Wallingford CT, 2016.
 
 ******************************************
 Gaussian 16:  ES64L-G16RevA.03 25-Dec-2016
                11-May-2022 
 ******************************************
 %chk=w2s1.chk
 %nproc=28
 Will use up to   28 processors via shared memory.
 %mem=500gb
 ------------------------
 #p MP2(full) SDDAll freq
 ------------------------
 1/10=4,30=1,38=1/1,3;
 2/12=2,17=6,18=5,40=1/2;
 3/5=17,6=6,11=9,25=1,30=1,71=2,140=1/1,2,3;
 4//1;
 5/5=2,38=5,98=1/2;
 8/6=3,8=1,10=90,19=11/1;
 9/15=3,16=-3/6;
 11/6=1,8=1,15=11,17=11,24=-1,27=1,28=-2,29=300,32=6,42=3/1,2,10;
 10/6=2,21=1/2;
 8/6=4,8=1,10=90,19=11/11,4;
 10/5=1,20=4/2;
 11/12=2,14=11,16=1,28=-2,42=3/2,10,12;
 6/7=2,8=2,9=2,10=2/1;
 7/8=1,10=1,12=2,25=1,44=2/1,2,3,16;
 1/10=4,30=1/3;
 99//99;
 Leave Link    1 at Wed May 11 21:22:41 2022, MaxMem= 67108864000 cpu:               1.5 elap:               0.1
 (Enter /cm/shared/apps/gaussian/intel/EM64T/SSE4_2-enabled/binary//g16/l101.exe)
 ----------------------------------------------------------------------
 file 'w2s1.log' Now we use Def2-QZVPPD, but it was opt at: ---' #p ZOR
 A-SR+SO PBE QZ4P'---
 ----------------------------------------------------------------------
 Symbolic Z-matrix:
 Charge =  2 Multiplicity = 1
 Hg(Fragment=1)       -0.00008  -0.02962  -0.00185 
 O(Fragment=2)         2.05467  -0.11595   0.10643 
 H(Fragment=2)         2.53643   0.65279   0.49482 
 H(Fragment=2)         2.55073  -0.43464  -0.68489 
 O(Fragment=2)        -2.0548   -0.10632  -0.11708 
 H(Fragment=2)        -2.53699   0.69428  -0.43397 
 H(Fragment=2)        -2.55065  -0.49598   0.64196 
 
 ITRead=  0  0  0  0  0  0  0
 MicOpt= -1 -1 -1 -1 -1 -1 -1
 NAtoms=      7 NQM=        7 NQMF=       0 NMMI=      0 NMMIF=      0
                NMic=       0 NMicF=      0.
                    Isotopes and Nuclear Properties:
 (Nuclear quadrupole moments (NQMom) in fm**2, nuclear magnetic moments (NMagM)
  in nuclear magnetons)

  Atom         1           2           3           4           5           6           7
 IAtWgt=         202          16           1           1          16           1           1
 AtmWgt= 201.9706000  15.9949146   1.0078250   1.0078250  15.9949146   1.0078250   1.0078250
 NucSpn=           0           0           1           1           0           1           1
 AtZEff=  -0.0000000  -0.0000000  -0.0000000  -0.0000000  -0.0000000  -0.0000000  -0.0000000
 NQMom=    0.0000000   0.0000000   0.0000000   0.0000000   0.0000000   0.0000000   0.0000000
 NMagM=    0.0000000   0.0000000   2.7928460   2.7928460   0.0000000   2.7928460   2.7928460
 AtZNuc=  80.0000000   8.0000000   1.0000000   1.0000000   8.0000000   1.0000000   1.0000000
 Leave Link  101 at Wed May 11 21:22:42 2022, MaxMem= 67108864000 cpu:               3.1 elap:               0.1
 (Enter /cm/shared/apps/gaussian/intel/EM64T/SSE4_2-enabled/binary//g16/l103.exe)

 GradGradGradGradGradGradGradGradGradGradGradGradGradGradGradGradGradGrad
 Berny optimization.
 Initialization pass.
 Trust Radius=3.00D-01 FncErr=1.00D-07 GrdErr=1.00D-07 EigMax=2.50D+02 EigMin=1.00D-04
 Number of steps in this run=      2 maximum allowed number of steps=      2.
 GradGradGradGradGradGradGradGradGradGradGradGradGradGradGradGradGradGrad

 Leave Link  103 at Wed May 11 21:22:42 2022, MaxMem= 67108864000 cpu:               0.7 elap:               0.1
 (Enter /cm/shared/apps/gaussian/intel/EM64T/SSE4_2-enabled/binary//g16/l202.exe)
                          Input orientation:                          
 ---------------------------------------------------------------------
 Center     Atomic      Atomic             Coordinates (Angstroms)
 Number     Number       Type             X           Y           Z
 ---------------------------------------------------------------------
      1         80           0       -0.000082   -0.029616   -0.001848
      2          8           0        2.054672   -0.115947    0.106434
      3          1           0        2.536426    0.652793    0.494815
      4          1           0        2.550725   -0.434644   -0.684894
      5          8           0       -2.054798   -0.106318   -0.117075
      6          1           0       -2.536990    0.694278   -0.433967
      7          1           0       -2.550654   -0.495978    0.641955
 ---------------------------------------------------------------------
                    Distance matrix (angstroms):
                    1          2          3          4          5
     1  Hg   0.000000
     2  O    2.059415   0.000000
     3  H    2.673243   0.986858   0.000000
     4  H    2.671557   0.986831   1.604505   0.000000
     5  O    2.059373   4.115555   4.693612   4.651995   0.000000
     6  H    2.673322   4.693811   5.157898   5.217497   0.986855
     7  H    2.671590   4.651906   5.217251   5.271466   0.986831
                    6          7
     6  H    0.000000
     7  H    1.604526   0.000000
 Stoichiometry    H4HgO2(2+)
 Framework group  C1[X(H4HgO2)]
 Deg. of freedom    15
 Full point group                 C1      NOp   1
 Largest Abelian subgroup         C1      NOp   1
 Largest concise Abelian subgroup C1      NOp   1
                         Standard orientation:                         
 ---------------------------------------------------------------------
 Center     Atomic      Atomic             Coordinates (Angstroms)
 Number     Number       Type             X           Y           Z
 ---------------------------------------------------------------------
      1         80           0        0.000002    0.007699   -0.000004
      2          8           0       -2.057115   -0.074258   -0.052393
      3          1           0       -2.548937    0.709008   -0.396623
      4          1           0       -2.530587   -0.423416    0.739913
      5          8           0        2.057090   -0.073523    0.052996
      6          1           0        2.549127    0.714140    0.386718
      7          1           0        2.530466   -0.433441   -0.734537
 ---------------------------------------------------------------------
 Rotational constants (GHZ):         165.5811141           3.1029935           3.1010530
 Leave Link  202 at Wed May 11 21:22:42 2022, MaxMem= 67108864000 cpu:               1.6 elap:               0.1
 (Enter /cm/shared/apps/gaussian/intel/EM64T/SSE4_2-enabled/binary//g16/l301.exe)
 Standard basis: SDDAll (6D, 10F)
 Ernie: Thresh=  0.10000D-02 Tol=  0.10000D-05 Strict=F.
 There are    69 symmetry adapted cartesian basis functions of A   symmetry.
 There are    69 symmetry adapted basis functions of A   symmetry.
    69 basis functions,   119 primitive gaussians,    69 cartesian basis functions
    17 alpha electrons       17 beta electrons
       nuclear repulsion energy        98.7927675716 Hartrees.
 IExCor=    0 DFT=F Ex=HF Corr=None ExCW=0 ScaHFX=  1.000000
 ScaDFX=  1.000000  1.000000  1.000000  1.000000 ScalE2=  1.000000  1.000000
 IRadAn=      5 IRanWt=     -1 IRanGd=            0 ICorTp=0 IEmpDi=  4
 NAtoms=    7 NActive=    7 NUniq=    7 SFac= 1.00D+00 NAtFMM=   60 NAOKFM=F Big=F
 Integral buffers will be    131072 words long.
 Raffenetti 1 integral format.
 Two-electron integral symmetry is turned on.
 Leave Link  301 at Wed May 11 21:22:42 2022, MaxMem= 67108864000 cpu:               1.6 elap:               0.1
 (Enter /cm/shared/apps/gaussian/intel/EM64T/SSE4_2-enabled/binary//g16/l302.exe)
 NPDir=0 NMtPBC=     1 NCelOv=     1 NCel=       1 NClECP=     1 NCelD=      1
         NCelK=      1 NCelE2=     1 NClLst=     1 CellRange=     0.0.
 One-electron integrals computed using PRISM.
 One-electron integral symmetry used in STVInt
   1 Symmetry operations used in ECPInt.
 ECPInt:  NShTT=     528 NPrTT=    1575 LenC2=     529 LenP2D=    1427.
 LDataN:  DoStor=T MaxTD1= 7 Len=  274
 NBasis=    69 RedAO= T EigKep=  3.93D-04  NBF=    69
 NBsUse=    69 1.00D-06 EigRej= -1.00D+00 NBFU=    69
 Leave Link  302 at Wed May 11 21:22:42 2022, MaxMem= 67108864000 cpu:               5.5 elap:               0.2
 (Enter /cm/shared/apps/gaussian/intel/EM64T/SSE4_2-enabled/binary//g16/l303.exe)
 DipDrv:  MaxL=1.
 Leave Link  303 at Wed May 11 21:22:42 2022, MaxMem= 67108864000 cpu:               0.7 elap:               0.0
 (Enter /cm/shared/apps/gaussian/intel/EM64T/SSE4_2-enabled/binary//g16/l401.exe)
 ExpMin= 2.00D-02 ExpMax= 4.71D+01 ExpMxC= 4.71D+01 IAcc=3 IRadAn=         5 AccDes= 0.00D+00
 Harris functional with IExCor=  205 and IRadAn=       5 diagonalized for initial guess.
 HarFok:  IExCor=  205 AccDes= 0.00D+00 IRadAn=         5 IDoV= 1 UseB2=F ITyADJ=14
 ICtDFT=  3500011 ScaDFX=  1.000000  1.000000  1.000000  1.000000
 Defaulting to unpruned grid for atomic number  80.
 FoFCou: FMM=F IPFlag=           0 FMFlag=      100000 FMFlg1=           0
         NFxFlg=           0 DoJE=T BraDBF=F KetDBF=T FulRan=T
         wScrn=  0.000000 ICntrl=       500 IOpCl=  0 I1Cent=   200000004 NGrid=           0
         NMat0=    1 NMatS0=      1 NMatT0=    0 NMatD0=    1 NMtDS0=    0 NMtDT0=    0
 Petite list used in FoFCou.
 Harris En= -187.826423120327    
 JPrj=0 DoOrth=F DoCkMO=F.
 Leave Link  401 at Wed May 11 21:22:42 2022, MaxMem= 67108864000 cpu:               5.7 elap:               0.2
 (Enter /cm/shared/apps/gaussian/intel/EM64T/SSE4_2-enabled/binary//g16/l502.exe)
 Keep R1 ints in memory in canonical form, NReq=8726589.
 FoFCou: FMM=F IPFlag=           0 FMFlag=           0 FMFlg1=           0
         NFxFlg=           0 DoJE=F BraDBF=F KetDBF=F FulRan=T
         wScrn=  0.000000 ICntrl=       600 IOpCl=  0 I1Cent=           0 NGrid=           0
         NMat0=    1 NMatS0=   2415 NMatT0=    0 NMatD0=    1 NMtDS0=    0 NMtDT0=    0
 Symmetry not used in FoFCou.
 Two-electron integral symmetry not used.
 Closed shell SCF:
 Using DIIS extrapolation, IDIIS=  1040.
 NGot= 67108864000 LenX= 67105934336 LenY= 67105929134
 Requested convergence on RMS density matrix=1.00D-08 within 128 cycles.
 Requested convergence on MAX density matrix=1.00D-06.
 Requested convergence on             energy=1.00D-06.
 No special actions if energy rises.

 Cycle   1  Pass 1  IDiag  1:
 E= -185.273006193895    
 DIIS: error= 8.71D-02 at cycle   1 NSaved=   1.
 NSaved= 1 IEnMin= 1 EnMin= -185.273006193895     IErMin= 1 ErrMin= 8.71D-02
 ErrMax= 8.71D-02  0.00D+00 EMaxC= 1.00D-01 BMatC= 4.16D-01 BMatP= 4.16D-01
 IDIUse=3 WtCom= 1.29D-01 WtEn= 8.71D-01
 Coeff-Com:  0.100D+01
 Coeff-En:   0.100D+01
 Coeff:      0.100D+01
 Gap=     0.671 Goal=   None    Shift=    0.000
 GapD=    0.671 DampG=2.000 DampE=0.250 DampFc=0.5000 IDamp=-1.
 Damping current iteration by 5.00D-01
 RMSDP=1.38D-02 MaxDP=2.78D-01              OVMax= 2.45D-01

 Cycle   2  Pass 1  IDiag  1:
 E= -185.470055813320     Delta-E=       -0.197049619425 Rises=F Damp=T
 DIIS: error= 2.59D-02 at cycle   2 NSaved=   2.
 NSaved= 2 IEnMin= 2 EnMin= -185.470055813320     IErMin= 2 ErrMin= 2.59D-02
 ErrMax= 2.59D-02  0.00D+00 EMaxC= 1.00D-01 BMatC= 3.16D-02 BMatP= 4.16D-01
 IDIUse=3 WtCom= 7.41D-01 WtEn= 2.59D-01
 Coeff-Com: -0.254D+00 0.125D+01
 Coeff-En:   0.000D+00 0.100D+01
 Coeff:     -0.188D+00 0.119D+01
 Gap=     0.608 Goal=   None    Shift=    0.000
 RMSDP=4.98D-03 MaxDP=9.23D-02 DE=-1.97D-01 OVMax= 6.10D-02

 Cycle   3  Pass 1  IDiag  1:
 E= -185.636881066912     Delta-E=       -0.166825253593 Rises=F Damp=F
 DIIS: error= 6.22D-03 at cycle   3 NSaved=   3.
 NSaved= 3 IEnMin= 3 EnMin= -185.636881066912     IErMin= 3 ErrMin= 6.22D-03
 ErrMax= 6.22D-03  0.00D+00 EMaxC= 1.00D-01 BMatC= 4.45D-03 BMatP= 3.16D-02
 IDIUse=3 WtCom= 9.38D-01 WtEn= 6.22D-02
 Coeff-Com:  0.132D+00-0.310D+00 0.118D+01
 Coeff-En:   0.000D+00 0.000D+00 0.100D+01
 Coeff:      0.124D+00-0.290D+00 0.117D+01
 Gap=     0.587 Goal=   None    Shift=    0.000
 RMSDP=2.04D-03 MaxDP=3.71D-02 DE=-1.67D-01 OVMax= 3.22D-02

 Cycle   4  Pass 1  IDiag  1:
 E= -185.641760073029     Delta-E=       -0.004879006116 Rises=F Damp=F
 DIIS: error= 4.29D-03 at cycle   4 NSaved=   4.
 NSaved= 4 IEnMin= 4 EnMin= -185.641760073029     IErMin= 4 ErrMin= 4.29D-03
 ErrMax= 4.29D-03  0.00D+00 EMaxC= 1.00D-01 BMatC= 5.03D-04 BMatP= 4.45D-03
 IDIUse=3 WtCom= 9.57D-01 WtEn= 4.29D-02
 Coeff-Com:  0.569D-01-0.184D+00 0.332D+00 0.795D+00
 Coeff-En:   0.000D+00 0.000D+00 0.000D+00 0.100D+01
 Coeff:      0.544D-01-0.176D+00 0.317D+00 0.804D+00
 Gap=     0.590 Goal=   None    Shift=    0.000
 RMSDP=6.80D-04 MaxDP=1.11D-02 DE=-4.88D-03 OVMax= 1.62D-02

 Cycle   5  Pass 1  IDiag  1:
 E= -185.642675407875     Delta-E=       -0.000915334846 Rises=F Damp=F
 DIIS: error= 1.35D-03 at cycle   5 NSaved=   5.
 NSaved= 5 IEnMin= 5 EnMin= -185.642675407875     IErMin= 5 ErrMin= 1.35D-03
 ErrMax= 1.35D-03  0.00D+00 EMaxC= 1.00D-01 BMatC= 5.75D-05 BMatP= 5.03D-04
 IDIUse=3 WtCom= 9.86D-01 WtEn= 1.35D-02
 Coeff-Com: -0.458D-01 0.124D+00-0.261D+00-0.282D+00 0.147D+01
 Coeff-En:   0.000D+00 0.000D+00 0.000D+00 0.000D+00 0.100D+01
 Coeff:     -0.452D-01 0.122D+00-0.258D+00-0.278D+00 0.146D+01
 Gap=     0.587 Goal=   None    Shift=    0.000
 RMSDP=4.90D-04 MaxDP=9.56D-03 DE=-9.15D-04 OVMax= 1.03D-02

 Cycle   6  Pass 1  IDiag  1:
 E= -185.642899684652     Delta-E=       -0.000224276778 Rises=F Damp=F
 DIIS: error= 2.42D-04 at cycle   6 NSaved=   6.
 NSaved= 6 IEnMin= 6 EnMin= -185.642899684652     IErMin= 6 ErrMin= 2.42D-04
 ErrMax= 2.42D-04  0.00D+00 EMaxC= 1.00D-01 BMatC= 5.75D-06 BMatP= 5.75D-05
 IDIUse=3 WtCom= 9.98D-01 WtEn= 2.42D-03
 Coeff-Com:  0.906D-02-0.184D-01 0.140D-01 0.201D-01-0.338D+00 0.131D+01
 Coeff-En:   0.000D+00 0.000D+00 0.000D+00 0.000D+00 0.000D+00 0.100D+01
 Coeff:      0.903D-02-0.184D-01 0.140D-01 0.201D-01-0.337D+00 0.131D+01
 Gap=     0.587 Goal=   None    Shift=    0.000
 RMSDP=1.49D-04 MaxDP=2.18D-03 DE=-2.24D-04 OVMax= 2.92D-03

 Cycle   7  Pass 1  IDiag  1:
 E= -185.642912365619     Delta-E=       -0.000012680967 Rises=F Damp=F
 DIIS: error= 2.51D-05 at cycle   7 NSaved=   7.
 NSaved= 7 IEnMin= 7 EnMin= -185.642912365619     IErMin= 7 ErrMin= 2.51D-05
 ErrMax= 2.51D-05  0.00D+00 EMaxC= 1.00D-01 BMatC= 8.28D-08 BMatP= 5.75D-06
 IDIUse=1 WtCom= 1.00D+00 WtEn= 0.00D+00
 Coeff-Com: -0.968D-03 0.160D-02 0.572D-02-0.955D-03 0.444D-01-0.266D+00
 Coeff-Com:  0.122D+01
 Coeff:     -0.968D-03 0.160D-02 0.572D-02-0.955D-03 0.444D-01-0.266D+00
 Coeff:      0.122D+01
 Gap=     0.587 Goal=   None    Shift=    0.000
 RMSDP=1.25D-05 MaxDP=2.24D-04 DE=-1.27D-05 OVMax= 1.71D-04

 Cycle   8  Pass 1  IDiag  1:
 E= -185.642912511982     Delta-E=       -0.000000146363 Rises=F Damp=F
 DIIS: error= 5.81D-06 at cycle   8 NSaved=   8.
 NSaved= 8 IEnMin= 8 EnMin= -185.642912511982     IErMin= 8 ErrMin= 5.81D-06
 ErrMax= 5.81D-06  0.00D+00 EMaxC= 1.00D-01 BMatC= 2.51D-09 BMatP= 8.28D-08
 IDIUse=1 WtCom= 1.00D+00 WtEn= 0.00D+00
 Coeff-Com:  0.580D-04-0.102D-03-0.189D-02 0.364D-03-0.413D-02 0.296D-01
 Coeff-Com: -0.317D+00 0.129D+01
 Coeff:      0.580D-04-0.102D-03-0.189D-02 0.364D-03-0.413D-02 0.296D-01
 Coeff:     -0.317D+00 0.129D+01
 Gap=     0.587 Goal=   None    Shift=    0.000
 RMSDP=2.66D-06 MaxDP=4.38D-05 DE=-1.46D-07 OVMax= 4.89D-05

 Cycle   9  Pass 1  IDiag  1:
 E= -185.642912519028     Delta-E=       -0.000000007046 Rises=F Damp=F
 DIIS: error= 1.21D-06 at cycle   9 NSaved=   9.
 NSaved= 9 IEnMin= 9 EnMin= -185.642912519028     IErMin= 9 ErrMin= 1.21D-06
 ErrMax= 1.21D-06  0.00D+00 EMaxC= 1.00D-01 BMatC= 1.04D-10 BMatP= 2.51D-09
 IDIUse=1 WtCom= 1.00D+00 WtEn= 0.00D+00
 Coeff-Com: -0.228D-05 0.152D-04 0.494D-03-0.146D-03 0.343D-03-0.249D-02
 Coeff-Com:  0.717D-01-0.491D+00 0.142D+01
 Coeff:     -0.228D-05 0.152D-04 0.494D-03-0.146D-03 0.343D-03-0.249D-02
 Coeff:      0.717D-01-0.491D+00 0.142D+01
 Gap=     0.587 Goal=   None    Shift=    0.000
 RMSDP=4.38D-07 MaxDP=8.76D-06 DE=-7.05D-09 OVMax= 8.63D-06

 Cycle  10  Pass 1  IDiag  1:
 E= -185.642912519371     Delta-E=       -0.000000000343 Rises=F Damp=F
 DIIS: error= 2.38D-07 at cycle  10 NSaved=  10.
 NSaved=10 IEnMin=10 EnMin= -185.642912519371     IErMin=10 ErrMin= 2.38D-07
 ErrMax= 2.38D-07  0.00D+00 EMaxC= 1.00D-01 BMatC= 4.37D-12 BMatP= 1.04D-10
 IDIUse=1 WtCom= 1.00D+00 WtEn= 0.00D+00
 Coeff-Com: -0.299D-05 0.563D-05-0.252D-04 0.203D-05 0.128D-03-0.668D-03
 Coeff-Com:  0.124D-04 0.341D-01-0.220D+00 0.119D+01
 Coeff:     -0.299D-05 0.563D-05-0.252D-04 0.203D-05 0.128D-03-0.668D-03
 Coeff:      0.124D-04 0.341D-01-0.220D+00 0.119D+01
 Gap=     0.587 Goal=   None    Shift=    0.000
 RMSDP=9.51D-08 MaxDP=1.78D-06 DE=-3.43D-10 OVMax= 1.52D-06

 Cycle  11  Pass 1  IDiag  1:
 E= -185.642912519385     Delta-E=       -0.000000000014 Rises=F Damp=F
 DIIS: error= 8.69D-08 at cycle  11 NSaved=  11.
 NSaved=11 IEnMin=11 EnMin= -185.642912519385     IErMin=11 ErrMin= 8.69D-08
 ErrMax= 8.69D-08  0.00D+00 EMaxC= 1.00D-01 BMatC= 1.00D-12 BMatP= 4.37D-12
 IDIUse=1 WtCom= 1.00D+00 WtEn= 0.00D+00
 Coeff-Com: -0.759D-06-0.114D-06-0.813D-04 0.230D-04-0.158D-04 0.169D-03
 Coeff-Com: -0.106D-01 0.828D-01-0.276D+00 0.340D+00 0.864D+00
 Coeff:     -0.759D-06-0.114D-06-0.813D-04 0.230D-04-0.158D-04 0.169D-03
 Coeff:     -0.106D-01 0.828D-01-0.276D+00 0.340D+00 0.864D+00
 Gap=     0.587 Goal=   None    Shift=    0.000
 RMSDP=3.24D-08 MaxDP=6.57D-07 DE=-1.37D-11 OVMax= 5.54D-07

 Cycle  12  Pass 1  IDiag  1:
 E= -185.642912519386     Delta-E=       -0.000000000001 Rises=F Damp=F
 DIIS: error= 2.97D-08 at cycle  12 NSaved=  12.
 NSaved=12 IEnMin=12 EnMin= -185.642912519386     IErMin=12 ErrMin= 2.97D-08
 ErrMax= 2.97D-08  0.00D+00 EMaxC= 1.00D-01 BMatC= 6.43D-14 BMatP= 1.00D-12
 IDIUse=1 WtCom= 1.00D+00 WtEn= 0.00D+00
 Coeff-Com:  0.462D-06-0.769D-06 0.168D-04-0.219D-05-0.217D-04 0.750D-04
 Coeff-Com:  0.159D-02-0.177D-01 0.728D-01-0.193D+00-0.135D+00 0.127D+01
 Coeff:      0.462D-06-0.769D-06 0.168D-04-0.219D-05-0.217D-04 0.750D-04
 Coeff:      0.159D-02-0.177D-01 0.728D-01-0.193D+00-0.135D+00 0.127D+01
 Gap=     0.587 Goal=   None    Shift=    0.000
 RMSDP=1.15D-08 MaxDP=2.41D-07 DE=-7.39D-13 OVMax= 2.66D-07

 Cycle  13  Pass 1  IDiag  1:
 E= -185.642912519386     Delta-E=       -0.000000000001 Rises=F Damp=F
 DIIS: error= 5.91D-09 at cycle  13 NSaved=  13.
 NSaved=13 IEnMin=13 EnMin= -185.642912519386     IErMin=13 ErrMin= 5.91D-09
 ErrMax= 5.91D-09  0.00D+00 EMaxC= 1.00D-01 BMatC= 2.01D-15 BMatP= 6.43D-14
 IDIUse=1 WtCom= 1.00D+00 WtEn= 0.00D+00
 Coeff-Com: -0.661D-07 0.149D-06-0.292D-05 0.157D-06 0.599D-05-0.178D-04
 Coeff-Com: -0.204D-03 0.310D-02-0.142D-01 0.463D-01 0.993D-02-0.390D+00
 Coeff-Com:  0.135D+01
 Coeff:     -0.661D-07 0.149D-06-0.292D-05 0.157D-06 0.599D-05-0.178D-04
 Coeff:     -0.204D-03 0.310D-02-0.142D-01 0.463D-01 0.993D-02-0.390D+00
 Coeff:      0.135D+01
 Gap=     0.587 Goal=   None    Shift=    0.000
 RMSDP=2.41D-09 MaxDP=4.15D-08 DE=-6.82D-13 OVMax= 6.70D-08

 SCF Done:  E(RHF) =  -185.642912519     A.U. after   13 cycles
            NFock= 13  Conv=0.24D-08     -V/T= 3.3810
 KE= 7.796792861591D+01 PE=-5.827451615385D+02 EE= 2.203415528316D+02
 Leave Link  502 at Wed May 11 21:22:43 2022, MaxMem= 67108864000 cpu:               7.5 elap:               0.3
 (Enter /cm/shared/apps/gaussian/intel/EM64T/SSE4_2-enabled/binary//g16/l801.exe)
 Range of M.O.s used for correlation:     1    69
 NBasis=    69 NAE=    17 NBE=    17 NFC=     0 NFV=     0
 NROrb=     69 NOA=    17 NOB=    17 NVA=    52 NVB=    52

 **** Warning!!: The largest alpha MO coefficient is  0.28632715D+02

 Leave Link  801 at Wed May 11 21:22:43 2022, MaxMem= 67108864000 cpu:               1.9 elap:               0.1
 (Enter /cm/shared/apps/gaussian/intel/EM64T/SSE4_2-enabled/binary//g16/l906.exe)
 FulOut=F Deriv=T AODrv=T NAtomX=     7
   MMem=           0  MDisk=          17 MDiskD=          17
  W3Min=       80937 MinDsk=      272594 NBas6D=          69
 NBas2D=        2493    NTT=        2415    LW2=     3308096
    MDV= 67108797155 MDiskM=    13507809 NBas2p=        2493
 Disk-based method using ON**2 memory for 17 occupieds at a time.
 Permanent disk used for amplitudes=      961792 words.
 Estimated scratch disk usage=    11521553 words.
 IMap=   1   2   3   4   5   6   7   8   9  10  11  12  13  14  15  16  17
 Actual    scratch disk usage=    10790929 words.
 JobTyp=1 Pass  1:  I=   1 to  17 NPSUse= 28 ParTrn=T ParDer=T DoDerP=T.
 (rs|ai) integrals will be sorted in core.
 Spin components of T(2) and E(2):
     alpha-alpha T2 =       0.1462402012D-01 E2=     -0.4910646207D-01
     alpha-beta  T2 =       0.8287782610D-01 E2=     -0.2751818086D+00
     beta-beta   T2 =       0.1462402012D-01 E2=     -0.4910646207D-01
 The integrals were generated   1 times.
 ANorm=    0.1054573784D+01
 E2 =    -0.3733947327D+00 EUMP2 =    -0.18601630725210D+03
 Leave Link  906 at Wed May 11 21:22:44 2022, MaxMem= 67108864000 cpu:              37.8 elap:               1.4
 (Enter /cm/shared/apps/gaussian/intel/EM64T/SSE4_2-enabled/binary//g16/l1101.exe)
 Using compressed Sx but separate Hx and Fx, NAtomX=     7.
 Will process      8 centers per pass.
   1 Symmetry operations used in ECPInt.
 ECPInt:  NShTT=     528 NPrTT=    1575 LenC2=     529 LenP2D=    1427.
 LDataN:  DoStor=T MaxTD1= 8 Len=  415
 Leave Link 1101 at Wed May 11 21:22:45 2022, MaxMem= 67108864000 cpu:              10.1 elap:               0.4
 (Enter /cm/shared/apps/gaussian/intel/EM64T/SSE4_2-enabled/binary//g16/l1102.exe)
 Leave Link 1102 at Wed May 11 21:22:45 2022, MaxMem= 67108864000 cpu:               1.0 elap:               0.1
 (Enter /cm/shared/apps/gaussian/intel/EM64T/SSE4_2-enabled/binary//g16/l1110.exe)
 Forming Gx(P) for the SCF density, NAtomX=     7.
 Integral derivatives from FoFJK, PRISM(SPDF).
 Do as many integral derivatives as possible in FoFJK.
 G2DrvN: MDV=   67108863374.
 G2DrvN: will do     8 centers at a time, making    1 passes.
 Calling FoFCou, ICntrl=  3107 FMM=F I1Cent=   0 AccDes= 0.00D+00.
 FoFJK:  IHMeth= 1 ICntrl=    3107 DoSepK=F KAlg= 0 I1Cent=           0 FoldK=F
 IRaf=         0 NMat=       1 IRICut=       1 DoRegI=T DoRafI=F ISym2E= 0 IDoP0=0 IntGTp=1.
 FoFCou: FMM=F IPFlag=           0 FMFlag=      100000 FMFlg1=           0
         NFxFlg=           0 DoJE=F BraDBF=F KetDBF=F FulRan=T
         wScrn=  0.000000 ICntrl=      3107 IOpCl=  0 I1Cent=           0 NGrid=           0
         NMat0=    1 NMatS0=      1 NMatT0=    0 NMatD0=    1 NMtDS0=    0 NMtDT0=    0
 Symmetry not used in FoFCou.
 End of G2Drv F.D. properties file   721 does not exist.
 End of G2Drv F.D. properties file   722 does not exist.
 End of G2Drv F.D. properties file   788 does not exist.
 Leave Link 1110 at Wed May 11 21:22:45 2022, MaxMem= 67108864000 cpu:               7.3 elap:               0.3
 (Enter /cm/shared/apps/gaussian/intel/EM64T/SSE4_2-enabled/binary//g16/l1002.exe)
 Minotr:  Closed shell wavefunction.
          IDoAtm=1111111
          Direct CPHF calculation.
          Differentiating once with respect to electric field.
                with respect to dipole field.
          Differentiating once with respect to nuclear coordinates.
          Requested convergence is 1.0D-08 RMS, and 1.0D-07 maximum.
          Secondary convergence is 1.0D-12 RMS, and 1.0D-12 maximum.
          NewPWx=T KeepS1=T KeepF1=T KeepIn=T MapXYZ=F SortEE=F KeepMc=T.
 Keep R1 ints in memory in canonical form, NReq=8727532.
 FoFCou: FMM=F IPFlag=           0 FMFlag=           0 FMFlg1=           0
         NFxFlg=           0 DoJE=F BraDBF=F KetDBF=F FulRan=T
         wScrn=  0.000000 ICntrl=       600 IOpCl=  0 I1Cent=           0 NGrid=           0
         NMat0=    1 NMatS0=   2415 NMatT0=    0 NMatD0=    1 NMtDS0=    0 NMtDT0=    0
 Symmetry not used in FoFCou.
 Two-electron integral symmetry not used.
          MDV=   67108864000 using IRadAn=       1.
          Solving linear equations simultaneously, MaxMat=       0.
          There are    24 degrees of freedom in the 1st order CPHF.  IDoFFX=6 NUNeed=    24.
     21 vectors produced by pass  0 Test12= 3.68D-15 4.17D-09 XBig12= 5.83D+00 1.54D+00.
 AX will form    21 AO Fock derivatives at one time.
     21 vectors produced by pass  1 Test12= 3.68D-15 4.17D-09 XBig12= 5.38D-02 5.56D-02.
     21 vectors produced by pass  2 Test12= 3.68D-15 4.17D-09 XBig12= 6.57D-04 6.41D-03.
     21 vectors produced by pass  3 Test12= 3.68D-15 4.17D-09 XBig12= 4.87D-06 6.65D-04.
     21 vectors produced by pass  4 Test12= 3.68D-15 4.17D-09 XBig12= 4.66D-08 6.59D-05.
     21 vectors produced by pass  5 Test12= 3.68D-15 4.17D-09 XBig12= 2.93D-10 4.38D-06.
     14 vectors produced by pass  6 Test12= 3.68D-15 4.17D-09 XBig12= 1.66D-12 3.64D-07.
      3 vectors produced by pass  7 Test12= 3.68D-15 4.17D-09 XBig12= 9.62D-15 2.03D-08.
 InvSVY:  IOpt=1 It=  1 EMax= 1.33D-15
 Solved reduced A of dimension   143 with    24 vectors.
 FullF1:  Do perturbations      1 to      24.
 Saving first derivative matrices.
 End of Minotr F.D. properties file   721 does not exist.
 End of Minotr F.D. properties file   722 does not exist.
 End of Minotr F.D. properties file   788 does not exist.
 Leave Link 1002 at Wed May 11 21:22:45 2022, MaxMem= 67108864000 cpu:               9.0 elap:               0.3
 (Enter /cm/shared/apps/gaussian/intel/EM64T/SSE4_2-enabled/binary//g16/l811.exe)
 MDV= 67108864000.
 Form MO integral derivatives with frozen-active canonical formalism.
 MOERI=1 MOERIx=1 NAtoms=     7 NAtomX=     7.
 Discarding MO integrals.
 MO basis two electron integral derivatives will not be stored on disk.
 IAlg= 3 DoFC=T DoPWx=T Debug=F.
 Reordered first order wavefunction length =      1562912
 In DefCFB: NBatch=  1 ICI= 17 ICA= 52 LFMax= 52
            Large arrays: LIAPS=    16834896 LIARS=    16651908 words.
 In StABat: MaxSiz= 39 MinSiz= 30 NAtomB=  2
 DoIAMN: NPSUse= 28.
 Leave Link  811 at Wed May 11 21:22:49 2022, MaxMem= 67108864000 cpu:              92.6 elap:               3.3
 (Enter /cm/shared/apps/gaussian/intel/EM64T/SSE4_2-enabled/binary//g16/l804.exe)
 Closed-shell transformation, MDV= 67108864000 ITran=4 ISComp=1.
 Semi-Direct transformation.
 ModeAB=           2 MOrb=            17 LenV=   67108614734
 LASXX=      2263516 LTotXX=     2263516 LenRXX=     2263516
 LTotAB=     2369103 MaxLAS=     2832795 LenRXY=     2832795
 NonZer=     4527032 LenScr=     7541760 LnRSAI=           0
 LnScr1=           0 LExtra=           0 Total=     12638071
 MaxDsk=          -1 SrtSym=           F ITran=            4
 DoSDTr:  NPSUse= 28
 JobTyp=0 Pass  1:  I=   1 to  17.
 (rs|ai) integrals will be sorted in core.
 Complete sort for first half transformation.
 First half transformation complete.
 Begin second half transformation for I=  10.
 Begin second half transformation for I=  10.
 Complete sort for second half transformation.
 Second half transformation complete.
 SymMOI:  orbitals are not symmetric.
 Spin components of T(2) and E(2):
     alpha-alpha T2 =       0.1462402012D-01 E2=     -0.4910646207D-01
     alpha-beta  T2 =       0.8287782610D-01 E2=     -0.2751818086D+00
     beta-beta   T2 =       0.1462402012D-01 E2=     -0.4910646207D-01
 ANorm=    0.1491392548D+01
 E2 =    -0.3733947327D+00 EUMP2 =    -0.18601630725210D+03
 Leave Link  804 at Wed May 11 21:22:49 2022, MaxMem= 67108864000 cpu:              14.7 elap:               0.6
 (Enter /cm/shared/apps/gaussian/intel/EM64T/SSE4_2-enabled/binary//g16/l1002.exe)
 Minotr:  Closed shell wavefunction.
          Computing MP2/KS-MP2 derivatives.
          Using Z-Vector for PSCF gradient.
          Skipping F1 and S1 gradient terms here.
          IDoAtm=1111111
          Using MO integrals in the linear equations.
          Forming densities via direct SCF.
          Differentiating once with respect to electric field.
                with respect to dipole field.
          Differentiating once with respect to nuclear coordinates.
          Requested convergence is 1.0D-10 RMS, and 1.0D-09 maximum.
          NewPWx=F KeepS1=T KeepF1=T KeepIn=T MapXYZ=F SortEE=F KeepMc=T.
          MDV=   67108864000 using IRadAn=       5.
          Solving linear equations separately, MaxMat=       0.
          There are     1 degrees of freedom in the 1st order CPHF.  IDoFFX=0 NUNeed=     1.
 FoFJK:  IHMeth= 1 ICntrl=       0 DoSepK=F KAlg= 0 I1Cent=           0 FoldK=F
 IRaf=         0 NMat=       1 IRICut=       1 DoRegI=T DoRafI=F ISym2E= 0 IDoP0=0 IntGTp=1.
 FoFCou: FMM=F IPFlag=           0 FMFlag=      100000 FMFlg1=           0
         NFxFlg=           0 DoJE=F BraDBF=F KetDBF=F FulRan=T
         wScrn=  0.000000 ICntrl=         0 IOpCl=  0 I1Cent=           0 NGrid=           0
         NMat0=    1 NMatS0=      1 NMatT0=    0 NMatD0=    1 NMtDS0=    0 NMtDT0=    0
 Symmetry not used in FoFCou.
 LinEq1:  Iter=  0 NonCon=     1 RMS=8.11D-03 Max=1.34D-01 NDo=     1
 LinEq1:  Iter=  1 NonCon=     1 RMS=1.99D-03 Max=1.84D-02 NDo=     1
 LinEq1:  Iter=  2 NonCon=     1 RMS=6.24D-04 Max=8.83D-03 NDo=     1
 LinEq1:  Iter=  3 NonCon=     1 RMS=2.20D-04 Max=3.16D-03 NDo=     1
 LinEq1:  Iter=  4 NonCon=     1 RMS=5.80D-05 Max=4.57D-04 NDo=     1
 LinEq1:  Iter=  5 NonCon=     1 RMS=6.80D-06 Max=4.36D-05 NDo=     1
 LinEq1:  Iter=  6 NonCon=     1 RMS=7.96D-07 Max=6.32D-06 NDo=     1
 LinEq1:  Iter=  7 NonCon=     1 RMS=1.08D-07 Max=1.15D-06 NDo=     1
 LinEq1:  Iter=  8 NonCon=     1 RMS=1.77D-08 Max=1.99D-07 NDo=     1
 LinEq1:  Iter=  9 NonCon=     1 RMS=3.51D-09 Max=4.27D-08 NDo=     1
 LinEq1:  Iter= 10 NonCon=     1 RMS=1.70D-09 Max=2.03D-08 NDo=     1
 LinEq1:  Iter= 11 NonCon=     1 RMS=2.57D-10 Max=2.16D-09 NDo=     1
 LinEq1:  Iter= 12 NonCon=     0 RMS=2.81D-11 Max=2.54D-10 NDo=     1
 Linear equations converged to 1.000D-10 1.000D-09 after    12 iterations.
 End of Minotr F.D. properties file   721 does not exist.
 End of Minotr F.D. properties file   722 does not exist.
 End of Minotr F.D. properties file   788 does not exist.
 Leave Link 1002 at Wed May 11 21:22:50 2022, MaxMem= 67108864000 cpu:              19.2 elap:               0.7
 (Enter /cm/shared/apps/gaussian/intel/EM64T/SSE4_2-enabled/binary//g16/l1102.exe)
 Use density number 2.
 Symmetrizing basis deriv contribution to polar:
 IMax=3 JMax=2 DiffMx= 0.00D+00
 Leave Link 1102 at Wed May 11 21:22:50 2022, MaxMem= 67108864000 cpu:               0.7 elap:               0.0
 (Enter /cm/shared/apps/gaussian/intel/EM64T/SSE4_2-enabled/binary//g16/l1110.exe)
 Forming Gx(P) for generalized density number  2 NAtomX=     7.
 Integral derivatives from FoFJK, PRISM(SPDF).
 Do as many integral derivatives as possible in FoFJK.
 G2DrvN: MDV=   67108863374.
 G2DrvN: will do     8 centers at a time, making    1 passes.
 Calling FoFCou, ICntrl=  3107 FMM=F I1Cent=   0 AccDes= 0.00D+00.
 FoFJK:  IHMeth= 1 ICntrl=    3107 DoSepK=F KAlg= 0 I1Cent=           0 FoldK=F
 IRaf=         0 NMat=       1 IRICut=       1 DoRegI=T DoRafI=F ISym2E= 0 IDoP0=0 IntGTp=1.
 FoFCou: FMM=F IPFlag=           0 FMFlag=      100000 FMFlg1=           0
         NFxFlg=           0 DoJE=F BraDBF=F KetDBF=F FulRan=T
         wScrn=  0.000000 ICntrl=      3107 IOpCl=  0 I1Cent=           0 NGrid=           0
         NMat0=    1 NMatS0=      1 NMatT0=    0 NMatD0=    1 NMtDS0=    0 NMtDT0=    0
 Symmetry not used in FoFCou.
 End of G2Drv F.D. properties file   721 does not exist.
 End of G2Drv F.D. properties file   722 does not exist.
 End of G2Drv F.D. properties file   788 does not exist.
 Leave Link 1110 at Wed May 11 21:22:50 2022, MaxMem= 67108864000 cpu:               7.8 elap:               0.3
 (Enter /cm/shared/apps/gaussian/intel/EM64T/SSE4_2-enabled/binary//g16/l1112.exe)
 MP22nd: MDV=   67108864000
 This link is doing NAtomX=     7 total of    24 degrees of freedom.
 Using ON3 I/O method in MakUI.
 Using Ix for Sx.
 Using OV2 memory method for fx*t*t/D, MaxI=    17 DoOO2=F NP=  28.
 R2 and R3 integrals will be kept in memory, NReq=     6654640.
 FoFCou: FMM=F IPFlag=           0 FMFlag=           0 FMFlg1=           0
         NFxFlg=           0 DoJE=F BraDBF=F KetDBF=F FulRan=T
         wScrn=  0.000000 ICntrl=       600 IOpCl=  0 I1Cent=           0 NGrid=           0
         NMat0=    1 NMatS0=      1 NMatT0=    0 NMatD0=    1 NMtDS0=    0 NMtDT0=    0
 Symmetry not used in FoFCou.
 DD1Dir will call FoFMem   1 times, MxPair=       306
 NAB=   153 NAA=     0 NBB=     0.
 Symmetry is being used.
 FoFJK:  IHMeth= 1 ICntrl=       0 DoSepK=F KAlg= 0 I1Cent=           0 FoldK=F
 IRaf=         0 NMat=      24 IRICut=      60 DoRegI=T DoRafI=T ISym2E= 2 IDoP0=0 IntGTp=1.
 Discarding MO integrals.
 Leave Link 1112 at Wed May 11 21:22:53 2022, MaxMem= 67108864000 cpu:              83.4 elap:               3.0
 (Enter /cm/shared/apps/gaussian/intel/EM64T/SSE4_2-enabled/binary//g16/l601.exe)
 Copying SCF densities to generalized density rwf, IOpCl= 0 IROHF=0.

 **********************************************************************

            Population analysis using the SCF density.

 **********************************************************************

 Orbital symmetries:
       Occupied  (A) (A) (A) (A) (A) (A) (A) (A) (A) (A) (A) (A)
                 (A) (A) (A) (A) (A)
       Virtual   (A) (A) (A) (A) (A) (A) (A) (A) (A) (A) (A) (A)
                 (A) (A) (A) (A) (A) (A) (A) (A) (A) (A) (A) (A)
                 (A) (A) (A) (A) (A) (A) (A) (A) (A) (A) (A) (A)
                 (A) (A) (A) (A) (A) (A) (A) (A) (A) (A) (A) (A)
                 (A) (A) (A) (A)
 The electronic state is 1-A.
 Alpha  occ. eigenvalues --   -5.56617  -3.56375  -3.55800  -3.55796  -1.83710
 Alpha  occ. eigenvalues --   -1.83025  -1.21088  -1.19744  -1.19670  -1.12757
 Alpha  occ. eigenvalues --   -1.12549  -1.12424  -1.12335  -1.06860  -1.01007
 Alpha  occ. eigenvalues --   -0.98070  -0.96879
 Alpha virt. eigenvalues --   -0.38226  -0.28591  -0.28406  -0.24488  -0.20845
 Alpha virt. eigenvalues --   -0.15270  -0.14150  -0.13731  -0.12626  -0.12040
 Alpha virt. eigenvalues --   -0.10515  -0.10215  -0.09842  -0.07354  -0.05318
 Alpha virt. eigenvalues --   -0.05072  -0.01415  -0.01328   0.00826   0.01257
 Alpha virt. eigenvalues --    0.06451   0.08227   0.08454   0.10297   0.25735
 Alpha virt. eigenvalues --    0.49500   0.49522   0.53075   0.53292   0.80018
 Alpha virt. eigenvalues --    0.91786   0.99064   1.00628   1.02025   1.02739
 Alpha virt. eigenvalues --    1.03668   1.04399   1.08232   1.08271   1.10512
 Alpha virt. eigenvalues --    1.14893   1.15006   1.27431   1.33768   2.18770
 Alpha virt. eigenvalues --    2.66964   4.09868  15.34424  41.43612  41.43657
 Alpha virt. eigenvalues --   41.55231  81.32466
          Condensed to atoms (all electrons):
               1          2          3          4          5          6
     1  Hg  18.297796   0.119684  -0.002467  -0.002201   0.119638  -0.002468
     2  O    0.119684   6.313155   0.238330   0.237917   0.000024  -0.000045
     3  H   -0.002467   0.238330   0.186921  -0.008453  -0.000045   0.000000
     4  H   -0.002201   0.237917  -0.008453   0.185436   0.000014   0.000000
     5  O    0.119638   0.000024  -0.000045   0.000014   6.313313   0.238330
     6  H   -0.002468  -0.000045   0.000000   0.000000   0.238330   0.186891
     7  H   -0.002204   0.000014   0.000000   0.000000   0.237917  -0.008447
               7
     1  Hg  -0.002204
     2  O    0.000014
     3  H    0.000000
     4  H    0.000000
     5  O    0.237917
     6  H   -0.008447
     7  H    0.185411
 Mulliken charges:
               1
     1  Hg   1.472221
     2  O   -0.909078
     3  H    0.585714
     4  H    0.587288
     5  O   -0.909192
     6  H    0.585738
     7  H    0.587309
 Sum of Mulliken charges =   2.00000
 Mulliken charges with hydrogens summed into heavy atoms:
               1
     1  Hg   1.472221
     2  O    0.263923
     5  O    0.263855
         Mulliken charges condensed to fragments:
      1      1.472221
      2      0.527779
 APT charges:
               1
     1  Hg   1.517970
     2  O   -0.660458
     3  H    0.450280
     4  H    0.451211
     5  O   -0.660567
     6  H    0.450318
     7  H    0.451245
 Sum of APT charges =   2.00000
 APT charges with hydrogens summed into heavy atoms:
               1
     1  Hg   1.517970
     2  O    0.241033
     5  O    0.240996
         APT charges condensed to fragments:
      1      1.517970
      2      0.482030
 Electronic spatial extent (au):  <R**2>=            319.3200
 Charge=              2.0000 electrons
 Dipole moment (field-independent basis, Debye):
    X=              0.0003    Y=              2.0513    Z=             -0.0138  Tot=              2.0513
 Quadrupole moment (field-independent basis, Debye-Ang):
   XX=              5.5747   YY=            -26.7458   ZZ=            -26.6816
   XY=             -0.0402   XZ=             -5.8009   YZ=              0.0002
 Traceless Quadrupole moment (field-independent basis, Debye-Ang):
   XX=             21.5256   YY=            -10.7949   ZZ=            -10.7307
   XY=             -0.0402   XZ=             -5.8009   YZ=              0.0002
 Octapole moment (field-independent basis, Debye-Ang**2):
  XXX=              0.0053  YYY=              2.9731  ZZZ=              0.0064  XYY=              0.1284
  XXY=             14.0594  XXZ=             -0.0966  XZZ=             -0.1259  YZZ=             -0.1714
  YYZ=             -0.0216  XYZ=              9.5688
 Hexadecapole moment (field-independent basis, Debye-Ang**3):
 XXXX=            -54.3780 YYYY=            -22.8654 ZZZZ=            -22.5198 XXXY=             -0.2603
 XXXZ=            -38.5052 YYYX=             -0.0019 YYYZ=              0.0087 ZZZX=             -7.2363
 ZZZY=             -0.0072 XXYY=            -41.0054 XXZZ=            -40.7981 YYZZ=             -7.1479
 XXYZ=              0.0003 YYXZ=              0.0046 ZZXY=             -0.0528
 N-N= 9.879276757165D+01 E-N=-5.827451614519D+02  KE= 7.796792861591D+01
  Exact polarizability:  34.495  -0.001  19.609  -0.167  -0.000  19.533
 Approx polarizability:  19.291  -0.002  14.645  -0.339  -0.000  14.569
 No NMR shielding tensors so no spin-rotation constants.
 Leave Link  601 at Wed May 11 21:22:53 2022, MaxMem= 67108864000 cpu:               3.8 elap:               0.2
 (Enter /cm/shared/apps/gaussian/intel/EM64T/SSE4_2-enabled/binary//g16/l701.exe)
 ... and contract with generalized density number  2.
 Compute integral second derivatives.
   1 Symmetry operations used in ECPInt.
 ECPInt:  NShTT=     528 NPrTT=    1575 LenC2=     529 LenP2D=    1427.
 LDataN:  DoStor=T MaxTD1= 9 Len=  602
 Leave Link  701 at Wed May 11 21:22:55 2022, MaxMem= 67108864000 cpu:              29.4 elap:               1.1
 (Enter /cm/shared/apps/gaussian/intel/EM64T/SSE4_2-enabled/binary//g16/l702.exe)
 L702 exits ... SP integral derivatives will be done elsewhere.
 Leave Link  702 at Wed May 11 21:22:55 2022, MaxMem= 67108864000 cpu:               1.0 elap:               0.1
 (Enter /cm/shared/apps/gaussian/intel/EM64T/SSE4_2-enabled/binary//g16/l703.exe)
 Integral derivatives from FoFJK, PRISM(SPDF).
 Compute integral second derivatives, UseDBF=F ICtDFT=           0.
 Calling FoFJK, ICntrl=  10100127 FMM=F ISym2X=0 I1Cent= 0 IOpClX= 0 NMat=1 NMatS=1 NMatT=0.
 FoFJK:  IHMeth= 1 ICntrl=10100127 DoSepK=F KAlg= 0 I1Cent=           0 FoldK=F
 IRaf=         0 NMat=       1 IRICut=       1 DoRegI=T DoRafI=F ISym2E= 0 IDoP0=0 IntGTp=1.
 FoFCou: FMM=F IPFlag=           0 FMFlag=      100000 FMFlg1=         800
         NFxFlg=           0 DoJE=F BraDBF=F KetDBF=F FulRan=T
         wScrn=  0.000000 ICntrl=  10100127 IOpCl=  0 I1Cent=           0 NGrid=           0
         NMat0=    1 NMatS0=      1 NMatT0=    0 NMatD0=    1 NMtDS0=    0 NMtDT0=    0
 Symmetry not used in FoFCou.
 Leave Link  703 at Wed May 11 21:22:55 2022, MaxMem= 67108864000 cpu:              12.9 elap:               0.5
 (Enter /cm/shared/apps/gaussian/intel/EM64T/SSE4_2-enabled/binary//g16/l716.exe)
 Dipole        = 6.96343642D-05 7.41754874D-01-5.06626680D-03
 Polarizability= 3.44949366D+01-7.99333060D-04 1.96090326D+01
                -1.67111524D-01-2.32449528D-04 1.95331821D+01
 Full mass-weighted force constant matrix:
 Low frequencies --- -217.8922 -196.0184  -81.2569  -81.1082   -0.0002   -0.0001
 Low frequencies ---    0.0001   81.9995   82.4129
 ******    1 imaginary frequencies (negative Signs) ****** 
 Diagonal vibrational polarizability:
       19.5102757     154.7184858     191.7537693
 Harmonic frequencies (cm**-1), IR intensities (KM/Mole), Raman scattering
 activities (A**4/AMU), depolarization ratios for plane and unpolarized
 incident light, reduced masses (AMU), force constants (mDyne/A),
 and normal coordinates:
                      1                      2                      3
                      A                      A                      A
 Frequencies --   -195.7369                73.2112                80.9527
 Red. masses --      1.0230                 3.9768                 4.6415
 Frc consts  --      0.0231                 0.0126                 0.0179
 IR Inten    --     49.9229                35.8634                24.1062
  Atom  AN      X      Y      Z        X      Y      Z        X      Y      Z
     1  80    -0.00   0.00  -0.00     0.00  -0.00  -0.05     0.00  -0.06   0.00
     2   8     0.00  -0.02   0.01    -0.01   0.01   0.28    -0.01   0.31   0.01
     3   1    -0.03  -0.24  -0.44    -0.09   0.06   0.52     0.17   0.41  -0.02
     4   1     0.03   0.44   0.24     0.15  -0.14   0.31    -0.11   0.43  -0.00
     5   8    -0.00  -0.02  -0.01    -0.01  -0.01   0.28     0.01   0.31  -0.01
     6   1     0.03  -0.24   0.44    -0.09  -0.06   0.52    -0.17   0.41   0.02
     7   1    -0.03   0.43  -0.25     0.15   0.14   0.31     0.11   0.43   0.00
                      4                      5                      6
                      A                      A                      A
 Frequencies --    484.9160               557.1693               725.5374
 Red. masses --      7.1073                 7.9874                 1.1570
 Frc consts  --      0.9847                 1.4609                 0.3589
 IR Inten    --     11.3588                41.3159               307.1540
  Atom  AN      X      Y      Z        X      Y      Z        X      Y      Z
     1  80    -0.00  -0.00   0.00    -0.07  -0.00  -0.00    -0.00  -0.00   0.00
     2   8     0.45   0.03   0.03     0.44   0.04   0.04    -0.00   0.05   0.05
     3   1     0.33  -0.13  -0.13     0.27  -0.18  -0.21    -0.21  -0.27  -0.32
     4   1     0.34  -0.14  -0.12     0.28  -0.20  -0.18    -0.27  -0.31  -0.29
     5   8    -0.45   0.03  -0.03     0.44  -0.04   0.04     0.01   0.05  -0.05
     6   1    -0.33  -0.12   0.13     0.27   0.18  -0.21     0.22  -0.28   0.34
     7   1    -0.34  -0.13   0.12     0.28   0.20  -0.18     0.28  -0.32   0.31
                      7                      8                      9
                      A                      A                      A
 Frequencies --    727.5939               830.7363               837.1391
 Red. masses --      1.1701                 1.0974                 1.1164
 Frc consts  --      0.3650                 0.4462                 0.4610
 IR Inten    --    422.6559                49.7966                65.5737
  Atom  AN      X      Y      Z        X      Y      Z        X      Y      Z
     1  80    -0.01   0.00   0.00    -0.00   0.00   0.00     0.00  -0.00   0.00
     2   8     0.01  -0.05  -0.05    -0.00   0.03  -0.04    -0.00   0.05  -0.03
     3   1     0.28   0.31   0.32    -0.44  -0.19   0.07    -0.47  -0.19   0.09
     4   1     0.24   0.33   0.28     0.47  -0.04   0.21     0.44  -0.12   0.15
     5   8     0.01   0.05  -0.05    -0.00  -0.03  -0.04     0.00   0.05   0.03
     6   1     0.27  -0.29   0.31    -0.44   0.19   0.07     0.47  -0.19  -0.09
     7   1     0.22  -0.31   0.27     0.47   0.04   0.20    -0.44  -0.12  -0.15
                     10                     11                     12
                      A                      A                      A
 Frequencies --   1743.1687              1745.7320              3522.5724
 Red. masses --      1.0844                 1.0833                 1.0403
 Frc consts  --      1.9414                 1.9451                 7.6054
 IR Inten    --    228.0264                38.1214               648.0011
  Atom  AN      X      Y      Z        X      Y      Z        X      Y      Z
     1  80    -0.00   0.00   0.00    -0.00  -0.00   0.00     0.00  -0.00  -0.00
     2   8    -0.05   0.01   0.01     0.05  -0.01  -0.01     0.03  -0.01  -0.01
     3   1     0.37   0.08  -0.32    -0.37  -0.09   0.32    -0.23   0.39  -0.21
     4   1     0.38  -0.32   0.08    -0.38   0.31  -0.08    -0.22  -0.21   0.40
     5   8    -0.05  -0.01   0.01    -0.05  -0.01   0.01     0.03   0.01  -0.01
     6   1     0.37  -0.09  -0.32     0.38  -0.09  -0.32    -0.23  -0.39  -0.20
     7   1     0.38   0.32   0.08     0.38   0.32   0.08    -0.22   0.21   0.39
                     13                     14                     15
                      A                      A                      A
 Frequencies --   3532.3766              3626.0722              3626.3483
 Red. masses --      1.0405                 1.0857                 1.0873
 Frc consts  --      7.6497                 8.4107                 8.4247
 IR Inten    --     16.4778               370.5822               378.6636
  Atom  AN      X      Y      Z        X      Y      Z        X      Y      Z
     1  80     0.00  -0.00   0.00     0.00  -0.00  -0.00     0.00   0.00  -0.00
     2   8     0.03  -0.01  -0.01    -0.00   0.04  -0.04     0.00  -0.03   0.03
     3   1    -0.23   0.39  -0.21     0.26  -0.41   0.18    -0.24   0.37  -0.17
     4   1    -0.22  -0.21   0.39    -0.25  -0.18   0.42     0.23   0.17  -0.38
     5   8    -0.03  -0.01   0.01    -0.00  -0.03  -0.03    -0.00  -0.04  -0.04
     6   1     0.23   0.39   0.20     0.24   0.38   0.16     0.26   0.41   0.18
     7   1     0.22  -0.21  -0.39    -0.23   0.17   0.38    -0.25   0.20   0.41

 -------------------
 - Thermochemistry -
 -------------------
 Temperature   298.150 Kelvin.  Pressure   1.00000 Atm.
 Atom     1 has atomic number 80 and mass 201.97060
 Atom     2 has atomic number  8 and mass  15.99491
 Atom     3 has atomic number  1 and mass   1.00783
 Atom     4 has atomic number  1 and mass   1.00783
 Atom     5 has atomic number  8 and mass  15.99491
 Atom     6 has atomic number  1 and mass   1.00783
 Atom     7 has atomic number  1 and mass   1.00783
 Molecular mass:   237.99173 amu.
 Principal axes and moments of inertia in atomic units:
                           1         2         3
     Eigenvalues --    10.89944 581.61296 581.97690
           X            0.99994  -0.00006  -0.01075
           Y            0.00008   1.00000   0.00171
           Z            0.01075  -0.00171   0.99994
 This molecule is an asymmetric top.
 Rotational symmetry number  1.
 Rotational temperatures (Kelvin)      7.94664     0.14892     0.14883
 Rotational constants (GHZ):         165.58111     3.10299     3.10105
    1 imaginary frequencies ignored.
 Zero-point vibrational energy     132268.3 (Joules/Mol)
                                   31.61287 (Kcal/Mol)
 Warning -- explicit consideration of   4 degrees of freedom as
           vibrations may cause significant error
 Vibrational temperatures:    105.33   116.47   697.69   801.64  1043.89
          (Kelvin)           1046.85  1195.24  1204.46  2508.03  2511.72
                             5068.20  5082.30  5217.11  5217.51
 
 Zero-point correction=                           0.050378 (Hartree/Particle)
 Thermal correction to Energy=                    0.055537
 Thermal correction to Enthalpy=                  0.056481
 Thermal correction to Gibbs Free Energy=         0.020746
 Sum of electronic and zero-point Energies=           -185.965929
 Sum of electronic and thermal Energies=              -185.960770
 Sum of electronic and thermal Enthalpies=            -185.959826
 Sum of electronic and thermal Free Energies=         -185.995562
 
                     E (Thermal)             CV                S
                      KCal/Mol        Cal/Mol-Kelvin    Cal/Mol-Kelvin
 Total                   34.850             15.112             75.212
 Electronic               0.000              0.000              0.000
 Translational            0.889              2.981             42.303
 Rotational               0.889              2.981             22.827
 Vibrational             33.073              9.150             10.083
 Vibration     1          0.599              1.967              4.065
 Vibration     2          0.600              1.962              3.868
 Vibration     3          0.841              1.283              0.697
 Vibration     4          0.913              1.124              0.530
                       Q            Log10(Q)             Ln(Q)
 Total Bot       0.286883D-09         -9.542295        -21.971946
 Total V=0       0.426681D+14         13.630103         31.384472
 Vib (Bot)       0.914305D-22        -22.038909        -50.746463
 Vib (Bot)    1  0.281584D+01          0.449607          1.035259
 Vib (Bot)    2  0.254362D+01          0.405452          0.933587
 Vib (Bot)    3  0.343440D+00         -0.464149         -1.068742
 Vib (Bot)    4  0.279718D+00         -0.553279         -1.273973
 Vib (V=0)       0.135984D+02          1.133489          2.609954
 Vib (V=0)    1  0.335988D+01          0.526324          1.211906
 Vib (V=0)    2  0.309229D+01          0.490281          1.128913
 Vib (V=0)    3  0.110659D+01          0.043987          0.101283
 Vib (V=0)    4  0.107292D+01          0.030569          0.070388
 Electronic      0.100000D+01          0.000000          0.000000
 Translational   0.144310D+09          8.159297         18.787475
 Rotational      0.217429D+05          4.337318          9.987043
 
                      file 'w2s1.log' Now we use Def2-QZVPPD, but it was opt at: 
 ---' #p ZORA-SR+SO PBE QZ4P'---
                                                             IR Spectrum
 
     33 33                                                            11                                                             
     66 55                                                            77                              88  77     5  4                
     22 32                                                            44                              33  22     5  8            87  
     66 23                                                            63                              71  86     7  5            13  
 
     XX XX                                                            XX                              XX  XX     X  X            XX  
     XX  X                                                             X                              XX  XX                         
     XX  X                                                             X                                  XX                         
     XX  X                                                             X                                  XX                         
     XX  X                                                             X                                  XX                         
     XX  X                                                             X                                  XX                         
     XX  X                                                             X                                  XX                         
     XX  X                                                                                                XX                         
     XX  X                                                                                                XX                         
     XX  X                                                                                                X                          
     XX  X                                                                                                X                          
     X   X                                                                                                X                          
         X                                                                                                X                          
         X                                                                                                                           
         X                                                                                                                           
         X                                                                                                                           
         X                                                                                                                           
         X                                                                                                                           
         X                                                                                                                           
         X                                                                                                                           
 
 ***** Axes restored to original set *****
 -------------------------------------------------------------------
 Center     Atomic                   Forces (Hartrees/Bohr)
 Number     Number              X              Y              Z
 -------------------------------------------------------------------
      1       80           0.000005163   -0.007978290   -0.000355997
      2        8           0.003259680    0.016556728   -0.013863836
      3        1           0.005444708   -0.002266107    0.009910245
      4        1           0.005359490   -0.010159350    0.001092725
      5        8          -0.003280420    0.015217314    0.015297070
      6        1          -0.005439132   -0.001356932   -0.010068998
      7        1          -0.005349489   -0.010013364   -0.002011210
 -------------------------------------------------------------------
 Cartesian Forces:  Max     0.016556728 RMS     0.008588275
 Z-matrix is all fixed cartesians, so copy forces.
 Force constants in Cartesian coordinates: 
                1             2             3             4             5 
      1  0.374259D+00
      2 -0.323224D-03  0.287646D-01
      3  0.821171D-02 -0.799027D-05  0.289514D-01
      4 -0.160477D+00  0.737751D-02 -0.103765D-01  0.454176D+00
      5 -0.444917D-02 -0.225194D-01 -0.978183D-02  0.103891D+00  0.371768D+00
      6  0.276591D-02 -0.964079D-02 -0.244020D-01 -0.972834D-01  0.270713D+00
      7 -0.130739D-01 -0.124624D-01 -0.632893D-02 -0.148838D+00 -0.161223D+00
      8  0.338009D-02  0.482439D-02  0.402162D-02 -0.146546D+00 -0.274374D+00
      9 -0.336146D-02  0.401589D-03  0.413664D-02 -0.463469D-01 -0.121007D+00
     10 -0.135661D-01  0.492778D-02  0.125781D-01 -0.154095D+00  0.633758D-01
     11  0.342769D-02  0.379296D-02  0.541775D-03  0.349129D-01 -0.801781D-01
     12 -0.342808D-02  0.393422D-02  0.530722D-02  0.153348D+00 -0.140667D+00
     13 -0.160508D+00 -0.643766D-02 -0.109952D-01  0.725599D-02 -0.594632D-03
     14  0.413677D-02 -0.242950D-01  0.978967D-02  0.508146D-03  0.578874D-02
     15  0.318237D-02  0.965594D-02 -0.226253D-01  0.980846D-03 -0.115635D-03
     16 -0.130742D-01  0.129765D-01 -0.516613D-02  0.101183D-02 -0.115219D-02
     17 -0.306678D-02  0.522375D-02 -0.392444D-02 -0.886968D-03 -0.476113D-03
     18 -0.364961D-02 -0.308684D-03  0.374446D-02  0.576502D-03  0.260762D-03
     19 -0.135595D-01 -0.605856D-02  0.120769D-01  0.966709D-03  0.152447D-03
     20 -0.310537D-02  0.420870D-02 -0.638804D-03  0.743420D-03 -0.902674D-05
     21 -0.372085D-02 -0.403428D-02  0.488755D-02 -0.898788D-03  0.597401D-03
                6             7             8             9            10 
      6  0.414078D+00
      7 -0.756530D-01  0.145941D+00
      8 -0.159033D+00  0.154635D+00  0.278199D+00
      9 -0.103378D+00  0.676302D-01  0.155204D+00  0.110353D+00
     10  0.170209D+00  0.156255D-01 -0.121843D-01 -0.183730D-01  0.151310D+00
     11 -0.102884D+00  0.179707D-01 -0.854836D-02 -0.344233D-01 -0.559347D-01
     12 -0.291821D+00  0.139739D-01  0.415380D-03 -0.112979D-01 -0.163422D+00
     13  0.940092D-03  0.101150D-02  0.830802D-03  0.655272D-03  0.965585D-03
     14  0.104903D-03  0.113998D-02 -0.386055D-03 -0.290277D-03 -0.534708D-04
     15  0.589775D-02  0.198287D-03 -0.720705D-03 -0.142228D-03 -0.108345D-02
     16  0.943394D-04 -0.447807D-03 -0.593064D-04 -0.872706D-04 -0.218672D-03
     17  0.690744D-03  0.666427D-04  0.462847D-03  0.219010D-03  0.671055D-04
     18 -0.527415D-04 -0.813323D-04 -0.169233D-03 -0.831534D-04 -0.111275D-03
     19 -0.107321D-02 -0.218411D-03 -0.568702D-04 -0.116850D-03 -0.210635D-04
     20  0.491585D-04 -0.127310D-03 -0.177694D-03 -0.104005D-03 -0.198216D-03
     21 -0.321867D-03  0.260791D-03  0.282776D-03  0.412280D-03  0.202042D-03
               11            12            13            14            15 
     11  0.847119D-01
     12  0.136946D+00  0.298061D+00
     13 -0.658439D-03 -0.962885D-03  0.454327D+00
     14  0.467296D-04 -0.563904D-03 -0.946250D-01  0.421072D+00
     15 -0.157353D-04 -0.378371D-03 -0.106201D+00 -0.270152D+00  0.364688D+00
     16  0.102985D-03  0.271310D-03 -0.149016D+00  0.167520D+00 -0.607550D-01
     17 -0.156557D-03 -0.334670D-03  0.150237D+00 -0.298149D+00  0.141203D+00
     18  0.520108D-04  0.391056D-03 -0.328890D-01  0.103205D+00 -0.794437D-01
     19  0.178853D-03  0.219159D-03 -0.154035D+00 -0.786262D-01  0.163677D+00
     20  0.331496D-03  0.270752D-03 -0.487516D-01 -0.104077D+00  0.120145D+00
     21 -0.216482D-03 -0.261244D-03  0.149452D+00  0.157906D+00 -0.267996D+00
               16            17            18            19            20 
     16  0.146116D+00
     17 -0.160235D+00  0.304746D+00
     18  0.533615D-01 -0.137416D+00  0.836356D-01
     19  0.156290D-01  0.138188D-01 -0.172068D-01  0.151238D+00
     20 -0.191524D-01 -0.116508D-01  0.343763D-01  0.705915D-01  0.111374D+00
     21  0.122813D-01 -0.437935D-03 -0.819145D-02 -0.157577D+00 -0.154098D+00
               21 
     21  0.271471D+00
 Leave Link  716 at Wed May 11 21:22:55 2022, MaxMem= 67108864000 cpu:               1.2 elap:               0.1
 (Enter /cm/shared/apps/gaussian/intel/EM64T/SSE4_2-enabled/binary//g16/l103.exe)

 GradGradGradGradGradGradGradGradGradGradGradGradGradGradGradGradGradGrad
 Berny optimization.
 Search for a local minimum.
 Step number   1 out of a maximum of    2
 All quantities printed in internal units (Hartrees-Bohrs-Radians)
 Second derivative matrix not updated -- analytic derivatives used.
 ITU=  0
     Eigenvalues ---   -0.00152   0.00325   0.00331   0.03718   0.04629
     Eigenvalues ---    0.05622   0.07541   0.08385   0.15156   0.21554
     Eigenvalues ---    0.36716   0.80204   0.85128   0.99057   1.00216
 Eigenvalue     1 is  -1.52D-03 should be greater than     0.000000 Eigenvector:
                          Y4        Z6        Z3        Y7        Z7
   1                    0.41746  -0.41702   0.39129   0.39106   0.30838
                          Y3        Z4        Y6        Y5        Z2
   1                   -0.30138  -0.27143  -0.26459  -0.05102  -0.04962
 Quadratic step=7.917D-01 exceeds max=3.000D-01 adjusted using Lamda=-6.207D-02.
 Angle between NR and scaled steps=  27.54 degrees.
 Angle between quadratic step and forces=  22.15 degrees.
 Linear search not attempted -- first point.
 B after Tr=    -0.000006    0.008692    0.000401
         Rot=    0.999994    0.000005   -0.003472   -0.000159 Ang=   0.40 deg.
 Variable       Old X    -DE/DX   Delta X   Delta X   Delta X     New X
                                 (Linear)    (Quad)   (Total)
    X1       -0.00015   0.00001   0.00000   0.00001  -0.00000  -0.00016
    Y1       -0.05597  -0.00798   0.00000  -0.06097  -0.05228  -0.10825
    Z1       -0.00349  -0.00036   0.00000  -0.00273  -0.00232  -0.00582
    X2        3.88277   0.00326   0.00000   0.00669   0.00750   3.89027
    Y2       -0.21911   0.01656   0.00000   0.09765   0.10758  -0.11153
    Z2        0.20113  -0.01386   0.00000  -0.07486  -0.10146   0.09967
    X3        4.79315   0.00544   0.00000   0.06129   0.06792   4.86107
    Y3        1.23360  -0.00227   0.00000  -0.02855  -0.01830   1.21530
    Z3        0.93506   0.00991   0.00000   0.09202   0.05868   0.99374
    X4        4.82017   0.00536   0.00000   0.08562   0.07714   4.89732
    Y4       -0.82136  -0.01016   0.00000  -0.07208  -0.06184  -0.88320
    Z4       -1.29426   0.00109   0.00000   0.04990   0.01628  -1.27798
    X5       -3.88301  -0.00328   0.00000  -0.00675  -0.00759  -3.89059
    Y5       -0.20091   0.01522   0.00000   0.09039   0.09784  -0.10307
    Z5       -0.22124   0.01530   0.00000   0.08333   0.11074  -0.11050
    X6       -4.79422  -0.00544   0.00000  -0.06123  -0.06787  -4.86209
    Y6        1.31200  -0.00136   0.00000  -0.02004  -0.01290   1.29909
    Z6       -0.82008  -0.01007   0.00000  -0.09420  -0.06007  -0.88015
    X7       -4.82004  -0.00535   0.00000  -0.08556  -0.07710  -4.89714
    Y7       -0.93726  -0.01001   0.00000  -0.06724  -0.06009  -0.99736
    Z7        1.21312  -0.00201   0.00000  -0.05628  -0.02184   1.19128
         Item               Value     Threshold  Converged?
 Maximum Force            0.016557     0.000450     NO 
 RMS     Force            0.008588     0.000300     NO 
 Maximum Displacement     0.110743     0.001800     NO 
 RMS     Displacement     0.063021     0.001200     NO 
 Predicted change in Energy=-8.276094D-03
 GradGradGradGradGradGradGradGradGradGradGradGradGradGradGradGradGradGrad

 Leave Link  103 at Wed May 11 21:22:55 2022, MaxMem= 67108864000 cpu:               0.7 elap:               0.0
 (Enter /cm/shared/apps/gaussian/intel/EM64T/SSE4_2-enabled/binary//g16/l9999.exe)

 ----------------------------------------------------------------------

 Electric dipole moment (input orientation):
 (Debye = 10**-18 statcoulomb cm , SI units = C m)
                  (au)            (Debye)         (10**-30 SI)
   Tot        0.741772D+00      0.188540D+01      0.628901D+01
   x         -0.177726D-03     -0.451735D-03     -0.150683D-02
   y          0.740999D+00      0.188343D+01      0.628245D+01
   z          0.338608D-01      0.860656D-01      0.287084D+00

 Dipole polarizability, Alpha (input orientation).
 (esu units = cm**3 , SI units = C**2 m**2 J**-1)
 Alpha(0;0):
               (au)            (10**-24 esu)      (10**-40 SI)
   iso        0.245457D+02      0.363730D+01      0.404704D+01
   aniso      0.149268D+02      0.221192D+01      0.246109D+01
   xx         0.344922D+02      0.511121D+01      0.568699D+01
   yx        -0.101926D-01     -0.151039D-02     -0.168054D-02
   yy         0.196089D+02      0.290574D+01      0.323307D+01
   zx         0.263250D+00      0.390096D-01      0.434041D-01
   zy         0.307673D-02      0.455924D-03      0.507284D-03
   zz         0.195361D+02      0.289495D+01      0.322107D+01

 ----------------------------------------------------------------------

 Dipole orientation:
    80         -0.00016860          0.00093376         -0.05606716
     8          3.88276518         -0.21003465         -0.21062862
     1          4.79365662         -0.87668082          1.27384991
     1          4.81967330          1.25652235         -0.88073794
     8         -3.88310424          0.21094889         -0.20987137
     1         -4.79411219          0.87801721          1.27434085
     1         -4.81996111         -1.25574251         -0.87975355

 Electric dipole moment (dipole orientation):
 (Debye = 10**-18 statcoulomb cm , SI units = C m)
                  (au)            (Debye)         (10**-30 SI)
   Tot        0.741772D+00      0.188540D+01      0.628901D+01
   x          0.000000D+00      0.000000D+00      0.000000D+00
   y          0.000000D+00      0.000000D+00      0.000000D+00
   z          0.741772D+00      0.188540D+01      0.628901D+01

 Dipole polarizability, Alpha (dipole orientation).
 (esu units = cm**3 , SI units = C**2 m**2 J**-1)
 Alpha(0;0):
               (au)            (10**-24 esu)      (10**-40 SI)
   iso        0.245457D+02      0.363730D+01      0.404704D+01
   aniso      0.149268D+02      0.221192D+01      0.246109D+01
   xx         0.344923D+02      0.511123D+01      0.568701D+01
   yx        -0.260017D+00     -0.385306D-01     -0.428711D-01
   yy         0.195358D+02      0.289491D+01      0.322102D+01
   zx        -0.173106D-02     -0.256517D-03     -0.285413D-03
   zy         0.319465D-03      0.473398D-04      0.526726D-04
   zz         0.196090D+02      0.290576D+01      0.323309D+01

 ----------------------------------------------------------------------
 1\1\GINC-CTCP002\Freq\RMP2-Full\SDDAll\H4Hg1O2(2+)\FLOREZ\11-May-2022\
 0\\#p MP2(full) SDDAll freq\\file 'w2s1.log' Now we use Def2-QZVPPD, b
 ut it was opt at: ---' #p ZORA-SR+SO PBE QZ4P'---\\2,1\Hg,-0.000082,-0
 .029616,-0.001848\O,2.054672,-0.115947,0.106434\H,2.536426,0.652793,0.
 494815\H,2.550725,-0.434644,-0.684894\O,-2.054798,-0.106318,-0.117075\
 H,-2.53699,0.694278,-0.433967\H,-2.550654,-0.495978,0.641955\\Version=
 ES64L-G16RevA.03\State=1-A\HF=-185.6429125\MP2=-186.0163073\RMSD=2.406
 e-09\RMSF=8.588e-03\ZeroPoint=0.0503783\Thermal=0.0555371\Dipole=-0.00
 01777,0.7409989,0.0338608\DipoleDeriv=2.0218548,-0.0008632,0.0213084,0
 .0026651,1.2660322,0.0000171,-0.0554387,-0.0000006,1.2660244,-0.840003
 9,0.0480519,-0.0417135,-0.0257945,-0.5677524,-0.0153353,0.0518188,-0.0
 170668,-0.5736167,0.413927,0.0286683,0.0648079,0.1590009,0.4511158,0.0
 220912,0.1542169,0.011954,0.4857962,0.4151827,-0.0619122,-0.0331574,-0
 .1419534,0.4817132,0.0143575,-0.1786891,0.026021,0.4567375,-0.8400779,
 -0.0441275,-0.0458284,0.0208309,-0.5708641,0.0155178,0.0539278,0.01729
 8,-0.5707588,0.4140387,-0.0344665,0.0619648,-0.1723702,0.4544845,-0.02
 48644,0.1391689,-0.0147417,0.4824317,0.4150787,0.0646492,-0.0273819,0.
 1576212,0.4852708,-0.0117839,-0.1650047,-0.0234638,0.4533857\Polar=34.
 4921639,-0.0101926,19.6089036,0.26325,0.0030767,19.5360838\PG=C01 [X(H
 4Hg1O2)]\NImag=1\\0.37425860,-0.00032322,0.02876463,0.00821171,-0.0000
 0799,0.02895136,-0.16047657,0.00737751,-0.01037646,0.45417570,-0.00444
 917,-0.02251942,-0.00978183,0.10389064,0.37176785,0.00276591,-0.009640
 79,-0.02440196,-0.09728342,0.27071331,0.41407834,-0.01307389,-0.012462
 37,-0.00632893,-0.14883825,-0.16122289,-0.07565298,0.14594140,0.003380
 09,0.00482439,0.00402162,-0.14654561,-0.27437390,-0.15903350,0.1546352
 4,0.27819877,-0.00336146,0.00040159,0.00413664,-0.04634691,-0.12100669
 ,-0.10337821,0.06763022,0.15520366,0.11035261,-0.01356611,0.00492778,0
 .01257808,-0.15409541,0.06337580,0.17020927,0.01562546,-0.01218434,-0.
 01837300,0.15131021,0.00342769,0.00379296,0.00054178,0.03491286,-0.080
 17813,-0.10288382,0.01797072,-0.00854836,-0.03442329,-0.05593466,0.084
 71186,-0.00342808,0.00393422,0.00530722,0.15334823,-0.14066732,-0.2918
 2131,0.01397394,0.00041538,-0.01129794,-0.16342168,0.13694554,0.298060
 59,-0.16050831,-0.00643766,-0.01099515,0.00725599,-0.00059463,0.000940
 09,0.00101150,0.00083080,0.00065527,0.00096558,-0.00065844,-0.00096288
 ,0.45432659,0.00413677,-0.02429501,0.00978967,0.00050815,0.00578874,0.
 00010490,0.00113998,-0.00038605,-0.00029028,-0.00005347,0.00004673,-0.
 00056390,-0.09462502,0.42107167,0.00318237,0.00965594,-0.02262527,0.00
 098085,-0.00011564,0.00589775,0.00019829,-0.00072070,-0.00014223,-0.00
 108345,-0.00001574,-0.00037837,-0.10620052,-0.27015175,0.36468821,-0.0
 1307417,0.01297653,-0.00516613,0.00101183,-0.00115219,0.00009434,-0.00
 044781,-0.00005931,-0.00008727,-0.00021867,0.00010298,0.00027131,-0.14
 901634,0.16751977,-0.06075502,0.14611615,-0.00306678,0.00522375,-0.003
 92444,-0.00088697,-0.00047611,0.00069074,0.00006664,0.00046285,0.00021
 901,0.00006711,-0.00015656,-0.00033467,0.15023655,-0.29814931,0.141203
 33,-0.16023535,0.30474619,-0.00364961,-0.00030868,0.00374446,0.0005765
 0,0.00026076,-0.00005274,-0.00008133,-0.00016923,-0.00008315,-0.000111
 27,0.00005201,0.00039106,-0.03288897,0.10320489,-0.07944374,0.05336148
 ,-0.13741604,0.08363556,-0.01355954,-0.00605856,0.01207687,0.00096671,
 0.00015245,-0.00107321,-0.00021841,-0.00005687,-0.00011685,-0.00002106
 ,0.00017885,0.00021916,-0.15403501,-0.07862617,0.16367747,0.01562900,0
 .01381880,-0.01720680,0.15123831,-0.00310537,0.00420870,-0.00063880,0.
 00074342,-0.00000903,0.00004916,-0.00012731,-0.00017769,-0.00010400,-0
 .00019822,0.00033150,0.00027075,-0.04875160,-0.10407676,0.12014456,-0.
 01915244,-0.01165081,0.03437630,0.07059151,0.11137409,-0.00372085,-0.0
 0403428,0.00488755,-0.00089879,0.00059740,-0.00032187,0.00026079,0.000
 28278,0.00041228,0.00020204,-0.00021648,-0.00026124,0.14945216,0.15790
 648,-0.26799635,0.01228128,-0.00043793,-0.00819145,-0.15757664,-0.1540
 9796,0.27147108\\-0.00000516,0.00797829,0.00035600,-0.00325968,-0.0165
 5673,0.01386384,-0.00544471,0.00226611,-0.00991025,-0.00535949,0.01015
 935,-0.00109273,0.00328042,-0.01521731,-0.01529707,0.00543913,0.001356
 93,0.01006900,0.00534949,0.01001336,0.00201121\\\@


 THE ATTENTION SPAN OF A COMPUTER IS AS LONG
 AS ITS EXTENSION CORD.
 Job cpu time:       0 days  0 hours  6 minutes  3.7 seconds.
 Elapsed time:       0 days  0 hours  0 minutes 13.8 seconds.
 File lengths (MBytes):  RWF=    291 Int=      0 D2E=      0 Chk=      2 Scr=      1
 Normal termination of Gaussian 16 at Wed May 11 21:22:55 2022.
