 Entering Gaussian System, Link 0=g16
 Initial command:
 /cm/shared/apps/gaussian/intel/EM64T/SSE4_2-enabled/binary//g16/l1.exe "/scratch/florez/25750/Gau-16739.inp" -scrdir="/scratch/florez/25750/"
 Entering Link 1 = /cm/shared/apps/gaussian/intel/EM64T/SSE4_2-enabled/binary//g16/l1.exe PID=     16741.
  
 Copyright (c) 1988,1990,1992,1993,1995,1998,2003,2009,2016,
            Gaussian, Inc.  All Rights Reserved.
  
 This is part of the Gaussian(R) 16 program.  It is based on
 the Gaussian(R) 09 system (copyright 2009, Gaussian, Inc.),
 the Gaussian(R) 03 system (copyright 2003, Gaussian, Inc.),
 the Gaussian(R) 98 system (copyright 1998, Gaussian, Inc.),
 the Gaussian(R) 94 system (copyright 1995, Gaussian, Inc.),
 the Gaussian 92(TM) system (copyright 1992, Gaussian, Inc.),
 the Gaussian 90(TM) system (copyright 1990, Gaussian, Inc.),
 the Gaussian 88(TM) system (copyright 1988, Gaussian, Inc.),
 the Gaussian 86(TM) system (copyright 1986, Carnegie Mellon
 University), and the Gaussian 82(TM) system (copyright 1983,
 Carnegie Mellon University). Gaussian is a federally registered
 trademark of Gaussian, Inc.
  
 This software contains proprietary and confidential information,
 including trade secrets, belonging to Gaussian, Inc.
  
 This software is provided under written license and may be
 used, copied, transmitted, or stored only in accord with that
 written license.
  
 The following legend is applicable only to US Government
 contracts under FAR:
  
                    RESTRICTED RIGHTS LEGEND
  
 Use, reproduction and disclosure by the US Government is
 subject to restrictions as set forth in subparagraphs (a)
 and (c) of the Commercial Computer Software - Restricted
 Rights clause in FAR 52.227-19.
  
 Gaussian, Inc.
 340 Quinnipiac St., Bldg. 40, Wallingford CT 06492
  
  
 ---------------------------------------------------------------
 Warning -- This program may not be used in any manner that
 competes with the business of Gaussian, Inc. or will provide
 assistance to any competitor of Gaussian, Inc.  The licensee
 of this program is prohibited from giving any competitor of
 Gaussian, Inc. access to this program.  By using this program,
 the user acknowledges that Gaussian, Inc. is engaged in the
 business of creating and licensing software in the field of
 computational chemistry and represents and warrants to the
 licensee that it is not a competitor of Gaussian, Inc. and that
 it will not use this program in any manner prohibited above.
 ---------------------------------------------------------------
  

 Cite this work as:
 Gaussian 16, Revision A.03,
 M. J. Frisch, G. W. Trucks, H. B. Schlegel, G. E. Scuseria, 
 M. A. Robb, J. R. Cheeseman, G. Scalmani, V. Barone, 
 G. A. Petersson, H. Nakatsuji, X. Li, M. Caricato, A. V. Marenich, 
 J. Bloino, B. G. Janesko, R. Gomperts, B. Mennucci, H. P. Hratchian, 
 J. V. Ortiz, A. F. Izmaylov, J. L. Sonnenberg, D. Williams-Young, 
 F. Ding, F. Lipparini, F. Egidi, J. Goings, B. Peng, A. Petrone, 
 T. Henderson, D. Ranasinghe, V. G. Zakrzewski, J. Gao, N. Rega, 
 G. Zheng, W. Liang, M. Hada, M. Ehara, K. Toyota, R. Fukuda, 
 J. Hasegawa, M. Ishida, T. Nakajima, Y. Honda, O. Kitao, H. Nakai, 
 T. Vreven, K. Throssell, J. A. Montgomery, Jr., J. E. Peralta, 
 F. Ogliaro, M. J. Bearpark, J. J. Heyd, E. N. Brothers, K. N. Kudin, 
 V. N. Staroverov, T. A. Keith, R. Kobayashi, J. Normand, 
 K. Raghavachari, A. P. Rendell, J. C. Burant, S. S. Iyengar, 
 J. Tomasi, M. Cossi, J. M. Millam, M. Klene, C. Adamo, R. Cammi, 
 J. W. Ochterski, R. L. Martin, K. Morokuma, O. Farkas, 
 J. B. Foresman, and D. J. Fox, Gaussian, Inc., Wallingford CT, 2016.
 
 ******************************************
 Gaussian 16:  ES64L-G16RevA.03 25-Dec-2016
                11-May-2022 
 ******************************************
 %chk=w3s1.chk
 %nproc=28
 Will use up to   28 processors via shared memory.
 %mem=500gb
 ------------------------
 #p MP2(full) SDDAll freq
 ------------------------
 1/10=4,30=1,38=1/1,3;
 2/12=2,17=6,18=5,40=1/2;
 3/5=17,6=6,11=9,25=1,30=1,71=2,140=1/1,2,3;
 4//1;
 5/5=2,38=5,98=1/2;
 8/6=3,8=1,10=90,19=11/1;
 9/15=3,16=-3/6;
 11/6=1,8=1,15=11,17=11,24=-1,27=1,28=-2,29=300,32=6,42=3/1,2,10;
 10/6=2,21=1/2;
 8/6=4,8=1,10=90,19=11/11,4;
 10/5=1,20=4/2;
 11/12=2,14=11,16=1,28=-2,42=3/2,10,12;
 6/7=2,8=2,9=2,10=2/1;
 7/8=1,10=1,12=2,25=1,44=2/1,2,3,16;
 1/10=4,30=1/3;
 99//99;
 Leave Link    1 at Wed May 11 21:22:55 2022, MaxMem= 67108864000 cpu:               1.0 elap:               0.0
 (Enter /cm/shared/apps/gaussian/intel/EM64T/SSE4_2-enabled/binary//g16/l101.exe)
 ----------------------------------------------------------------------
 file 'w3s1.log' Now we use Def2-QZVPPD, but it was opt at: ---' #p ZOR
 A-SR+SO PBE QZ4P'---
 ----------------------------------------------------------------------
 Symbolic Z-matrix:
 Charge =  2 Multiplicity = 1
 Hg(Fragment=1)        0.38537  -0.03716  -0.00082 
 O(Fragment=2)         2.3228    0.71221  -0.00099 
 H(Fragment=2)         2.87899   0.56745  -0.79733 
 H(Fragment=2)         2.87969   0.56632   0.79482 
 O(Fragment=2)        -1.51278  -0.61357  -0.00087 
 H(Fragment=2)        -2.78293   0.06955  -0.00023 
 H(Fragment=2)        -1.55895  -1.59032   0.00733 
 O(Fragment=2)        -3.69828   0.62235   0.00018 
 H(Fragment=2)        -4.24484   0.49114  -0.80521 
 H(Fragment=2)        -4.24788   0.48407   0.80209 
 
 ITRead=  0  0  0  0  0  0  0  0  0  0
 MicOpt= -1 -1 -1 -1 -1 -1 -1 -1 -1 -1
 NAtoms=     10 NQM=       10 NQMF=       0 NMMI=      0 NMMIF=      0
                NMic=       0 NMicF=      0.
                    Isotopes and Nuclear Properties:
 (Nuclear quadrupole moments (NQMom) in fm**2, nuclear magnetic moments (NMagM)
  in nuclear magnetons)

  Atom         1           2           3           4           5           6           7           8           9          10
 IAtWgt=         202          16           1           1          16           1           1          16           1           1
 AtmWgt= 201.9706000  15.9949146   1.0078250   1.0078250  15.9949146   1.0078250   1.0078250  15.9949146   1.0078250   1.0078250
 NucSpn=           0           0           1           1           0           1           1           0           1           1
 AtZEff=  -0.0000000  -0.0000000  -0.0000000  -0.0000000  -0.0000000  -0.0000000  -0.0000000  -0.0000000  -0.0000000  -0.0000000
 NQMom=    0.0000000   0.0000000   0.0000000   0.0000000   0.0000000   0.0000000   0.0000000   0.0000000   0.0000000   0.0000000
 NMagM=    0.0000000   0.0000000   2.7928460   2.7928460   0.0000000   2.7928460   2.7928460   0.0000000   2.7928460   2.7928460
 AtZNuc=  80.0000000   8.0000000   1.0000000   1.0000000   8.0000000   1.0000000   1.0000000   8.0000000   1.0000000   1.0000000
 Leave Link  101 at Wed May 11 21:22:56 2022, MaxMem= 67108864000 cpu:               3.1 elap:               0.1
 (Enter /cm/shared/apps/gaussian/intel/EM64T/SSE4_2-enabled/binary//g16/l103.exe)

 GradGradGradGradGradGradGradGradGradGradGradGradGradGradGradGradGradGrad
 Berny optimization.
 Initialization pass.
 Trust Radius=3.00D-01 FncErr=1.00D-07 GrdErr=1.00D-07 EigMax=2.50D+02 EigMin=1.00D-04
 Number of steps in this run=      2 maximum allowed number of steps=      2.
 GradGradGradGradGradGradGradGradGradGradGradGradGradGradGradGradGradGrad

 Leave Link  103 at Wed May 11 21:22:56 2022, MaxMem= 67108864000 cpu:               0.7 elap:               0.0
 (Enter /cm/shared/apps/gaussian/intel/EM64T/SSE4_2-enabled/binary//g16/l202.exe)
                          Input orientation:                          
 ---------------------------------------------------------------------
 Center     Atomic      Atomic             Coordinates (Angstroms)
 Number     Number       Type             X           Y           Z
 ---------------------------------------------------------------------
      1         80           0        0.385373   -0.037155   -0.000824
      2          8           0        2.322803    0.712212   -0.000991
      3          1           0        2.878987    0.567445   -0.797329
      4          1           0        2.879685    0.566317    0.794818
      5          8           0       -1.512780   -0.613570   -0.000869
      6          1           0       -2.782926    0.069548   -0.000229
      7          1           0       -1.558948   -1.590318    0.007329
      8          8           0       -3.698283    0.622350    0.000183
      9          1           0       -4.244843    0.491141   -0.805211
     10          1           0       -4.247882    0.484066    0.802085
 ---------------------------------------------------------------------
                    Distance matrix (angstroms):
                    1          2          3          4          5
     1  Hg   0.000000
     2  O    2.077303   0.000000
     3  H    2.686647   0.982065   0.000000
     4  H    2.686786   0.982199   1.592148   0.000000
     5  O    1.983744   4.058250   4.617008   4.617250   0.000000
     6  H    3.170095   5.146017   5.739384   5.739690   1.442193
     7  H    2.488527   4.513281   4.999868   4.997267   0.977873
     8  O    4.136568   6.021757   6.625671   6.626028   2.510761
     9  H    4.729169   6.620394   7.124243   7.302372   3.054754
    10  H    4.731108   6.623510   7.304611   7.128045   3.054558
                    6          7          8          9         10
     6  H    0.000000
     7  H    2.062361   0.000000
     8  O    1.069331   3.077776   0.000000
     9  H    1.721319   3.493812   0.982142   0.000000
    10  H    1.720938   3.487846   0.981951   1.607314   0.000000
 Stoichiometry    H6HgO3(2+)
 Framework group  C1[X(H6HgO3)]
 Deg. of freedom    24
 Full point group                 C1      NOp   1
 Largest Abelian subgroup         C1      NOp   1
 Largest concise Abelian subgroup C1      NOp   1
                         Standard orientation:                         
 ---------------------------------------------------------------------
 Center     Atomic      Atomic             Coordinates (Angstroms)
 Number     Number       Type             X           Y           Z
 ---------------------------------------------------------------------
      1         80           0        0.378732    0.071990    0.000151
      2          8           0        2.324103   -0.656514   -0.001102
      3          1           0        2.878846   -0.506936    0.795351
      4          1           0        2.879237   -0.503486   -0.796793
      5          8           0       -1.525505    0.627973    0.001357
      6          1           0       -2.788238   -0.068752   -0.000062
      7          1           0       -1.582168    1.604180   -0.005411
      8          8           0       -3.697602   -0.631358   -0.001123
      9          1           0       -4.245391   -0.507201    0.804554
     10          1           0       -4.248803   -0.497822   -0.802730
 ---------------------------------------------------------------------
 Rotational constants (GHZ):          18.8790923           1.1611857           1.1062558
 Leave Link  202 at Wed May 11 21:22:56 2022, MaxMem= 67108864000 cpu:               1.7 elap:               0.1
 (Enter /cm/shared/apps/gaussian/intel/EM64T/SSE4_2-enabled/binary//g16/l301.exe)
 Standard basis: SDDAll (6D, 10F)
 Ernie: Thresh=  0.10000D-02 Tol=  0.10000D-05 Strict=F.
 There are    84 symmetry adapted cartesian basis functions of A   symmetry.
 There are    84 symmetry adapted basis functions of A   symmetry.
    84 basis functions,   146 primitive gaussians,    84 cartesian basis functions
    21 alpha electrons       21 beta electrons
       nuclear repulsion energy       144.9202792957 Hartrees.
 IExCor=    0 DFT=F Ex=HF Corr=None ExCW=0 ScaHFX=  1.000000
 ScaDFX=  1.000000  1.000000  1.000000  1.000000 ScalE2=  1.000000  1.000000
 IRadAn=      5 IRanWt=     -1 IRanGd=            0 ICorTp=0 IEmpDi=  4
 NAtoms=   10 NActive=   10 NUniq=   10 SFac= 1.00D+00 NAtFMM=   60 NAOKFM=F Big=F
 Integral buffers will be    131072 words long.
 Raffenetti 1 integral format.
 Two-electron integral symmetry is turned on.
 Leave Link  301 at Wed May 11 21:22:56 2022, MaxMem= 67108864000 cpu:               1.3 elap:               0.1
 (Enter /cm/shared/apps/gaussian/intel/EM64T/SSE4_2-enabled/binary//g16/l302.exe)
 NPDir=0 NMtPBC=     1 NCelOv=     1 NCel=       1 NClECP=     1 NCelD=      1
         NCelK=      1 NCelE2=     1 NClLst=     1 CellRange=     0.0.
 One-electron integrals computed using PRISM.
 One-electron integral symmetry used in STVInt
   1 Symmetry operations used in ECPInt.
 ECPInt:  NShTT=     861 NPrTT=    2675 LenC2=     848 LenP2D=    2249.
 LDataN:  DoStor=T MaxTD1= 7 Len=  274
 NBasis=    84 RedAO= T EigKep=  3.90D-04  NBF=    84
 NBsUse=    84 1.00D-06 EigRej= -1.00D+00 NBFU=    84
 Leave Link  302 at Wed May 11 21:22:56 2022, MaxMem= 67108864000 cpu:               6.4 elap:               0.3
 (Enter /cm/shared/apps/gaussian/intel/EM64T/SSE4_2-enabled/binary//g16/l303.exe)
 DipDrv:  MaxL=1.
 Leave Link  303 at Wed May 11 21:22:56 2022, MaxMem= 67108864000 cpu:               2.6 elap:               0.1
 (Enter /cm/shared/apps/gaussian/intel/EM64T/SSE4_2-enabled/binary//g16/l401.exe)
 ExpMin= 2.00D-02 ExpMax= 4.71D+01 ExpMxC= 4.71D+01 IAcc=3 IRadAn=         5 AccDes= 0.00D+00
 Harris functional with IExCor=  205 and IRadAn=       5 diagonalized for initial guess.
 HarFok:  IExCor=  205 AccDes= 0.00D+00 IRadAn=         5 IDoV= 1 UseB2=F ITyADJ=14
 ICtDFT=  3500011 ScaDFX=  1.000000  1.000000  1.000000  1.000000
 Defaulting to unpruned grid for atomic number  80.
 FoFCou: FMM=F IPFlag=           0 FMFlag=      100000 FMFlg1=           0
         NFxFlg=           0 DoJE=T BraDBF=F KetDBF=T FulRan=T
         wScrn=  0.000000 ICntrl=       500 IOpCl=  0 I1Cent=   200000004 NGrid=           0
         NMat0=    1 NMatS0=      1 NMatT0=    0 NMatD0=    1 NMtDS0=    0 NMtDT0=    0
 Petite list used in FoFCou.
 Harris En= -205.155412591440    
 JPrj=0 DoOrth=F DoCkMO=F.
 Leave Link  401 at Wed May 11 21:22:56 2022, MaxMem= 67108864000 cpu:               5.7 elap:               0.2
 (Enter /cm/shared/apps/gaussian/intel/EM64T/SSE4_2-enabled/binary//g16/l502.exe)
 Keep R1 ints in memory in canonical form, NReq=12221965.
 FoFCou: FMM=F IPFlag=           0 FMFlag=           0 FMFlg1=           0
         NFxFlg=           0 DoJE=F BraDBF=F KetDBF=F FulRan=T
         wScrn=  0.000000 ICntrl=       600 IOpCl=  0 I1Cent=           0 NGrid=           0
         NMat0=    1 NMatS0=   3570 NMatT0=    0 NMatD0=    1 NMtDS0=    0 NMtDT0=    0
 Symmetry not used in FoFCou.
 Two-electron integral symmetry not used.
 Closed shell SCF:
 Using DIIS extrapolation, IDIIS=  1040.
 NGot= 67108864000 LenX= 67102472210 LenY= 67102464713
 Requested convergence on RMS density matrix=1.00D-08 within 128 cycles.
 Requested convergence on MAX density matrix=1.00D-06.
 Requested convergence on             energy=1.00D-06.
 No special actions if energy rises.

 Cycle   1  Pass 1  IDiag  1:
 E= -202.219657210955    
 DIIS: error= 7.69D-02 at cycle   1 NSaved=   1.
 NSaved= 1 IEnMin= 1 EnMin= -202.219657210955     IErMin= 1 ErrMin= 7.69D-02
 ErrMax= 7.69D-02  0.00D+00 EMaxC= 1.00D-01 BMatC= 4.55D-01 BMatP= 4.55D-01
 IDIUse=3 WtCom= 2.31D-01 WtEn= 7.69D-01
 Coeff-Com:  0.100D+01
 Coeff-En:   0.100D+01
 Coeff:      0.100D+01
 Gap=     0.672 Goal=   None    Shift=    0.000
 GapD=    0.672 DampG=2.000 DampE=0.250 DampFc=0.5000 IDamp=-1.
 Damping current iteration by 5.00D-01
 RMSDP=1.15D-02 MaxDP=2.52D-01              OVMax= 2.41D-01

 Cycle   2  Pass 1  IDiag  1:
 E= -202.424399850008     Delta-E=       -0.204742639053 Rises=F Damp=T
 DIIS: error= 2.16D-02 at cycle   2 NSaved=   2.
 NSaved= 2 IEnMin= 2 EnMin= -202.424399850008     IErMin= 2 ErrMin= 2.16D-02
 ErrMax= 2.16D-02  0.00D+00 EMaxC= 1.00D-01 BMatC= 3.03D-02 BMatP= 4.55D-01
 IDIUse=3 WtCom= 7.84D-01 WtEn= 2.16D-01
 Coeff-Com: -0.225D+00 0.122D+01
 Coeff-En:   0.000D+00 0.100D+01
 Coeff:     -0.176D+00 0.118D+01
 Gap=     0.562 Goal=   None    Shift=    0.000
 RMSDP=3.77D-03 MaxDP=7.25D-02 DE=-2.05D-01 OVMax= 8.30D-02

 Cycle   3  Pass 1  IDiag  1:
 E= -202.599294557651     Delta-E=       -0.174894707643 Rises=F Damp=F
 DIIS: error= 4.62D-03 at cycle   3 NSaved=   3.
 NSaved= 3 IEnMin= 3 EnMin= -202.599294557651     IErMin= 3 ErrMin= 4.62D-03
 ErrMax= 4.62D-03  0.00D+00 EMaxC= 1.00D-01 BMatC= 4.20D-03 BMatP= 3.03D-02
 IDIUse=3 WtCom= 9.54D-01 WtEn= 4.62D-02
 Coeff-Com:  0.521D-01-0.691D-01 0.102D+01
 Coeff-En:   0.000D+00 0.000D+00 0.100D+01
 Coeff:      0.497D-01-0.659D-01 0.102D+01
 Gap=     0.542 Goal=   None    Shift=    0.000
 RMSDP=1.46D-03 MaxDP=3.36D-02 DE=-1.75D-01 OVMax= 2.16D-02

 Cycle   4  Pass 1  IDiag  1:
 E= -202.603445262431     Delta-E=       -0.004150704779 Rises=F Damp=F
 DIIS: error= 3.46D-03 at cycle   4 NSaved=   4.
 NSaved= 4 IEnMin= 4 EnMin= -202.603445262431     IErMin= 4 ErrMin= 3.46D-03
 ErrMax= 3.46D-03  0.00D+00 EMaxC= 1.00D-01 BMatC= 6.36D-04 BMatP= 4.20D-03
 IDIUse=3 WtCom= 9.65D-01 WtEn= 3.46D-02
 Coeff-Com:  0.489D-01-0.181D+00 0.300D+00 0.832D+00
 Coeff-En:   0.000D+00 0.000D+00 0.000D+00 0.100D+01
 Coeff:      0.472D-01-0.174D+00 0.290D+00 0.838D+00
 Gap=     0.545 Goal=   None    Shift=    0.000
 RMSDP=6.50D-04 MaxDP=1.35D-02 DE=-4.15D-03 OVMax= 1.89D-02

 Cycle   5  Pass 1  IDiag  1:
 E= -202.604565081311     Delta-E=       -0.001119818880 Rises=F Damp=F
 DIIS: error= 9.37D-04 at cycle   5 NSaved=   5.
 NSaved= 5 IEnMin= 5 EnMin= -202.604565081311     IErMin= 5 ErrMin= 9.37D-04
 ErrMax= 9.37D-04  0.00D+00 EMaxC= 1.00D-01 BMatC= 5.43D-05 BMatP= 6.36D-04
 IDIUse=3 WtCom= 9.91D-01 WtEn= 9.37D-03
 Coeff-Com: -0.244D-01 0.721D-01-0.150D+00-0.190D+00 0.129D+01
 Coeff-En:   0.000D+00 0.000D+00 0.000D+00 0.000D+00 0.100D+01
 Coeff:     -0.242D-01 0.714D-01-0.148D+00-0.188D+00 0.129D+01
 Gap=     0.539 Goal=   None    Shift=    0.000
 RMSDP=3.12D-04 MaxDP=5.86D-03 DE=-1.12D-03 OVMax= 7.63D-03

 Cycle   6  Pass 1  IDiag  1:
 E= -202.604754070143     Delta-E=       -0.000188988832 Rises=F Damp=F
 DIIS: error= 3.01D-04 at cycle   6 NSaved=   6.
 NSaved= 6 IEnMin= 6 EnMin= -202.604754070143     IErMin= 6 ErrMin= 3.01D-04
 ErrMax= 3.01D-04  0.00D+00 EMaxC= 1.00D-01 BMatC= 1.24D-05 BMatP= 5.43D-05
 IDIUse=3 WtCom= 9.97D-01 WtEn= 3.01D-03
 Coeff-Com: -0.129D-01 0.428D-01-0.102D+00-0.164D+00 0.371D+00 0.864D+00
 Coeff-En:   0.000D+00 0.000D+00 0.000D+00 0.000D+00 0.000D+00 0.100D+01
 Coeff:     -0.128D-01 0.427D-01-0.101D+00-0.163D+00 0.370D+00 0.865D+00
 Gap=     0.538 Goal=   None    Shift=    0.000
 RMSDP=1.28D-04 MaxDP=2.30D-03 DE=-1.89D-04 OVMax= 3.33D-03

 Cycle   7  Pass 1  IDiag  1:
 E= -202.604780230086     Delta-E=       -0.000026159943 Rises=F Damp=F
 DIIS: error= 8.00D-05 at cycle   7 NSaved=   7.
 NSaved= 7 IEnMin= 7 EnMin= -202.604780230086     IErMin= 7 ErrMin= 8.00D-05
 ErrMax= 8.00D-05  0.00D+00 EMaxC= 1.00D-01 BMatC= 9.34D-07 BMatP= 1.24D-05
 IDIUse=1 WtCom= 1.00D+00 WtEn= 0.00D+00
 Coeff-Com:  0.399D-02-0.963D-02 0.145D-01 0.310D-01-0.162D+00-0.341D-01
 Coeff-Com:  0.116D+01
 Coeff:      0.399D-02-0.963D-02 0.145D-01 0.310D-01-0.162D+00-0.341D-01
 Coeff:      0.116D+01
 Gap=     0.538 Goal=   None    Shift=    0.000
 RMSDP=3.84D-05 MaxDP=6.45D-04 DE=-2.62D-05 OVMax= 9.48D-04

 Cycle   8  Pass 1  IDiag  1:
 E= -202.604782055523     Delta-E=       -0.000001825437 Rises=F Damp=F
 DIIS: error= 1.41D-05 at cycle   8 NSaved=   8.
 NSaved= 8 IEnMin= 8 EnMin= -202.604782055523     IErMin= 8 ErrMin= 1.41D-05
 ErrMax= 1.41D-05  0.00D+00 EMaxC= 1.00D-01 BMatC= 3.19D-08 BMatP= 9.34D-07
 IDIUse=1 WtCom= 1.00D+00 WtEn= 0.00D+00
 Coeff-Com: -0.193D-03 0.184D-03 0.236D-02 0.214D-03 0.711D-02-0.100D-01
 Coeff-Com: -0.133D+00 0.113D+01
 Coeff:     -0.193D-03 0.184D-03 0.236D-02 0.214D-03 0.711D-02-0.100D-01
 Coeff:     -0.133D+00 0.113D+01
 Gap=     0.538 Goal=   None    Shift=    0.000
 RMSDP=4.37D-06 MaxDP=7.12D-05 DE=-1.83D-06 OVMax= 8.96D-05

 Cycle   9  Pass 1  IDiag  1:
 E= -202.604782116603     Delta-E=       -0.000000061079 Rises=F Damp=F
 DIIS: error= 7.53D-06 at cycle   9 NSaved=   9.
 NSaved= 9 IEnMin= 9 EnMin= -202.604782116603     IErMin= 9 ErrMin= 7.53D-06
 ErrMax= 7.53D-06  0.00D+00 EMaxC= 1.00D-01 BMatC= 5.28D-09 BMatP= 3.19D-08
 IDIUse=1 WtCom= 1.00D+00 WtEn= 0.00D+00
 Coeff-Com: -0.468D-03 0.991D-03-0.807D-03-0.278D-02 0.187D-01 0.489D-03
 Coeff-Com: -0.166D+00 0.303D+00 0.847D+00
 Coeff:     -0.468D-03 0.991D-03-0.807D-03-0.278D-02 0.187D-01 0.489D-03
 Coeff:     -0.166D+00 0.303D+00 0.847D+00
 Gap=     0.538 Goal=   None    Shift=    0.000
 RMSDP=1.12D-06 MaxDP=2.42D-05 DE=-6.11D-08 OVMax= 3.56D-05

 Cycle  10  Pass 1  IDiag  1:
 E= -202.604782125073     Delta-E=       -0.000000008471 Rises=F Damp=F
 DIIS: error= 2.88D-06 at cycle  10 NSaved=  10.
 NSaved=10 IEnMin=10 EnMin= -202.604782125073     IErMin=10 ErrMin= 2.88D-06
 ErrMax= 2.88D-06  0.00D+00 EMaxC= 1.00D-01 BMatC= 4.97D-10 BMatP= 5.28D-09
 IDIUse=1 WtCom= 1.00D+00 WtEn= 0.00D+00
 Coeff-Com:  0.719D-04-0.117D-03-0.435D-03 0.411D-03-0.343D-02 0.104D-02
 Coeff-Com:  0.371D-01-0.174D+00-0.159D+00 0.130D+01
 Coeff:      0.719D-04-0.117D-03-0.435D-03 0.411D-03-0.343D-02 0.104D-02
 Coeff:      0.371D-01-0.174D+00-0.159D+00 0.130D+01
 Gap=     0.538 Goal=   None    Shift=    0.000
 RMSDP=8.02D-07 MaxDP=1.42D-05 DE=-8.47D-09 OVMax= 2.75D-05

 Cycle  11  Pass 1  IDiag  1:
 E= -202.604782126484     Delta-E=       -0.000000001411 Rises=F Damp=F
 DIIS: error= 3.60D-07 at cycle  11 NSaved=  11.
 NSaved=11 IEnMin=11 EnMin= -202.604782126484     IErMin=11 ErrMin= 3.60D-07
 ErrMax= 3.60D-07  0.00D+00 EMaxC= 1.00D-01 BMatC= 1.60D-11 BMatP= 4.97D-10
 IDIUse=1 WtCom= 1.00D+00 WtEn= 0.00D+00
 Coeff-Com: -0.797D-05 0.170D-04 0.118D-03-0.692D-04 0.331D-03 0.284D-03
 Coeff-Com: -0.373D-02 0.313D-01 0.271D-02-0.334D+00 0.130D+01
 Coeff:     -0.797D-05 0.170D-04 0.118D-03-0.692D-04 0.331D-03 0.284D-03
 Coeff:     -0.373D-02 0.313D-01 0.271D-02-0.334D+00 0.130D+01
 Gap=     0.538 Goal=   None    Shift=    0.000
 RMSDP=1.81D-07 MaxDP=4.13D-06 DE=-1.41D-09 OVMax= 3.56D-06

 Cycle  12  Pass 1  IDiag  1:
 E= -202.604782126533     Delta-E=       -0.000000000049 Rises=F Damp=F
 DIIS: error= 5.43D-08 at cycle  12 NSaved=  12.
 NSaved=12 IEnMin=12 EnMin= -202.604782126533     IErMin=12 ErrMin= 5.43D-08
 ErrMax= 5.43D-08  0.00D+00 EMaxC= 1.00D-01 BMatC= 7.06D-13 BMatP= 1.60D-11
 IDIUse=1 WtCom= 1.00D+00 WtEn= 0.00D+00
 Coeff-Com:  0.348D-06-0.175D-05-0.351D-04 0.142D-04-0.311D-04-0.122D-03
 Coeff-Com:  0.189D-03-0.556D-02 0.344D-02 0.809D-01-0.519D+00 0.144D+01
 Coeff:      0.348D-06-0.175D-05-0.351D-04 0.142D-04-0.311D-04-0.122D-03
 Coeff:      0.189D-03-0.556D-02 0.344D-02 0.809D-01-0.519D+00 0.144D+01
 Gap=     0.538 Goal=   None    Shift=    0.000
 RMSDP=3.84D-08 MaxDP=7.19D-07 DE=-4.87D-11 OVMax= 9.86D-07

 Cycle  13  Pass 1  IDiag  1:
 E= -202.604782126533     Delta-E=       -0.000000000000 Rises=F Damp=F
 DIIS: error= 1.26D-08 at cycle  13 NSaved=  13.
 NSaved=13 IEnMin=13 EnMin= -202.604782126533     IErMin=13 ErrMin= 1.26D-08
 ErrMax= 1.26D-08  0.00D+00 EMaxC= 1.00D-01 BMatC= 2.26D-14 BMatP= 7.06D-13
 IDIUse=1 WtCom= 1.00D+00 WtEn= 0.00D+00
 Coeff-Com:  0.633D-07 0.153D-06 0.730D-05-0.192D-05-0.153D-06 0.297D-04
 Coeff-Com:  0.642D-04 0.646D-03-0.137D-02-0.132D-01 0.123D+00-0.475D+00
 Coeff-Com:  0.137D+01
 Coeff:      0.633D-07 0.153D-06 0.730D-05-0.192D-05-0.153D-06 0.297D-04
 Coeff:      0.642D-04 0.646D-03-0.137D-02-0.132D-01 0.123D+00-0.475D+00
 Coeff:      0.137D+01
 Gap=     0.538 Goal=   None    Shift=    0.000
 RMSDP=6.20D-09 MaxDP=9.21D-08 DE=-4.55D-13 OVMax= 1.74D-07

 SCF Done:  E(RHF) =  -202.604782127     A.U. after   13 cycles
            NFock= 13  Conv=0.62D-08     -V/T= 3.2167
 KE= 9.140006982054D+01 PE=-7.153336875759D+02 EE= 2.764085563331D+02
 Leave Link  502 at Wed May 11 21:22:57 2022, MaxMem= 67108864000 cpu:               8.1 elap:               0.4
 (Enter /cm/shared/apps/gaussian/intel/EM64T/SSE4_2-enabled/binary//g16/l801.exe)
 Range of M.O.s used for correlation:     1    84
 NBasis=    84 NAE=    21 NBE=    21 NFC=     0 NFV=     0
 NROrb=     84 NOA=    21 NOB=    21 NVA=    63 NVB=    63

 **** Warning!!: The largest alpha MO coefficient is  0.28634709D+02

 Leave Link  801 at Wed May 11 21:22:57 2022, MaxMem= 67108864000 cpu:               1.1 elap:               0.1
 (Enter /cm/shared/apps/gaussian/intel/EM64T/SSE4_2-enabled/binary//g16/l906.exe)
 FulOut=F Deriv=T AODrv=T NAtomX=    10
   MMem=           0  MDisk=          21 MDiskD=          21
  W3Min=      148176 MinDsk=      471638 NBas6D=          84
 NBas2D=        3657    NTT=        3570    LW2=     3308096
    MDV= 67108763360 MDiskM=    11095695 NBas2p=        3597
 Disk-based method using ON**2 memory for 21 occupieds at a time.
 Permanent disk used for amplitudes=     2160459 words.
 Estimated scratch disk usage=    24176868 words.
 IMap=   1   2   3   4   5   6   7   8   9  10  11  12  13  14  15  16  17  18  19  20
 IMap=  21
 Actual    scratch disk usage=    22631140 words.
 JobTyp=1 Pass  1:  I=   1 to  21 NPSUse= 28 ParTrn=T ParDer=T DoDerP=T.
 (rs|ai) integrals will be sorted in core.
 Spin components of T(2) and E(2):
     alpha-alpha T2 =       0.2071671098D-01 E2=     -0.6719134271D-01
     alpha-beta  T2 =       0.1180413374D+00 E2=     -0.3835020957D+00
     beta-beta   T2 =       0.2071671098D-01 E2=     -0.6719134271D-01
 The integrals were generated   1 times.
 ANorm=    0.1076789097D+01
 E2 =    -0.5178847811D+00 EUMP2 =    -0.20312266690761D+03
 Leave Link  906 at Wed May 11 21:23:00 2022, MaxMem= 67108864000 cpu:              76.8 elap:               2.8
 (Enter /cm/shared/apps/gaussian/intel/EM64T/SSE4_2-enabled/binary//g16/l1101.exe)
 Using compressed Sx but separate Hx and Fx, NAtomX=    10.
 Will process     11 centers per pass.
   1 Symmetry operations used in ECPInt.
 ECPInt:  NShTT=     861 NPrTT=    2675 LenC2=     848 LenP2D=    2249.
 LDataN:  DoStor=T MaxTD1= 8 Len=  415
 Leave Link 1101 at Wed May 11 21:23:00 2022, MaxMem= 67108864000 cpu:              10.8 elap:               0.4
 (Enter /cm/shared/apps/gaussian/intel/EM64T/SSE4_2-enabled/binary//g16/l1102.exe)
 Leave Link 1102 at Wed May 11 21:23:00 2022, MaxMem= 67108864000 cpu:               1.2 elap:               0.1
 (Enter /cm/shared/apps/gaussian/intel/EM64T/SSE4_2-enabled/binary//g16/l1110.exe)
 Forming Gx(P) for the SCF density, NAtomX=    10.
 Integral derivatives from FoFJK, PRISM(SPDF).
 Do as many integral derivatives as possible in FoFJK.
 G2DrvN: MDV=   67108863164.
 G2DrvN: will do    11 centers at a time, making    1 passes.
 Calling FoFCou, ICntrl=  3107 FMM=F I1Cent=   0 AccDes= 0.00D+00.
 FoFJK:  IHMeth= 1 ICntrl=    3107 DoSepK=F KAlg= 0 I1Cent=           0 FoldK=F
 IRaf=         0 NMat=       1 IRICut=       1 DoRegI=T DoRafI=F ISym2E= 0 IDoP0=0 IntGTp=1.
 FoFCou: FMM=F IPFlag=           0 FMFlag=      100000 FMFlg1=           0
         NFxFlg=           0 DoJE=F BraDBF=F KetDBF=F FulRan=T
         wScrn=  0.000000 ICntrl=      3107 IOpCl=  0 I1Cent=           0 NGrid=           0
         NMat0=    1 NMatS0=      1 NMatT0=    0 NMatD0=    1 NMtDS0=    0 NMtDT0=    0
 Symmetry not used in FoFCou.
 End of G2Drv F.D. properties file   721 does not exist.
 End of G2Drv F.D. properties file   722 does not exist.
 End of G2Drv F.D. properties file   788 does not exist.
 Leave Link 1110 at Wed May 11 21:23:01 2022, MaxMem= 67108864000 cpu:               8.4 elap:               0.3
 (Enter /cm/shared/apps/gaussian/intel/EM64T/SSE4_2-enabled/binary//g16/l1002.exe)
 Minotr:  Closed shell wavefunction.
          IDoAtm=1111111111
          Direct CPHF calculation.
          Differentiating once with respect to electric field.
                with respect to dipole field.
          Differentiating once with respect to nuclear coordinates.
          Requested convergence is 1.0D-08 RMS, and 1.0D-07 maximum.
          Secondary convergence is 1.0D-12 RMS, and 1.0D-12 maximum.
          NewPWx=T KeepS1=T KeepF1=T KeepIn=T MapXYZ=F SortEE=F KeepMc=T.
 Keep R1 ints in memory in canonical form, NReq=12223181.
 FoFCou: FMM=F IPFlag=           0 FMFlag=           0 FMFlg1=           0
         NFxFlg=           0 DoJE=F BraDBF=F KetDBF=F FulRan=T
         wScrn=  0.000000 ICntrl=       600 IOpCl=  0 I1Cent=           0 NGrid=           0
         NMat0=    1 NMatS0=   3570 NMatT0=    0 NMatD0=    1 NMtDS0=    0 NMtDT0=    0
 Symmetry not used in FoFCou.
 Two-electron integral symmetry not used.
          MDV=   67108864000 using IRadAn=       1.
          Solving linear equations simultaneously, MaxMat=       0.
          There are    33 degrees of freedom in the 1st order CPHF.  IDoFFX=6 NUNeed=    33.
     30 vectors produced by pass  0 Test12= 4.01D-15 3.03D-09 XBig12= 9.25D+00 1.67D+00.
 AX will form    30 AO Fock derivatives at one time.
     30 vectors produced by pass  1 Test12= 4.01D-15 3.03D-09 XBig12= 1.87D-01 1.03D-01.
     30 vectors produced by pass  2 Test12= 4.01D-15 3.03D-09 XBig12= 4.13D-03 1.78D-02.
     30 vectors produced by pass  3 Test12= 4.01D-15 3.03D-09 XBig12= 3.12D-05 1.03D-03.
     30 vectors produced by pass  4 Test12= 4.01D-15 3.03D-09 XBig12= 2.20D-07 1.35D-04.
     30 vectors produced by pass  5 Test12= 4.01D-15 3.03D-09 XBig12= 1.57D-09 7.81D-06.
     20 vectors produced by pass  6 Test12= 4.01D-15 3.03D-09 XBig12= 6.26D-12 4.42D-07.
      3 vectors produced by pass  7 Test12= 4.01D-15 3.03D-09 XBig12= 3.84D-14 3.37D-08.
 InvSVY:  IOpt=1 It=  1 EMax= 1.33D-15
 Solved reduced A of dimension   203 with    33 vectors.
 FullF1:  Do perturbations      1 to      33.
 Saving first derivative matrices.
 End of Minotr F.D. properties file   721 does not exist.
 End of Minotr F.D. properties file   722 does not exist.
 End of Minotr F.D. properties file   788 does not exist.
 Leave Link 1002 at Wed May 11 21:23:01 2022, MaxMem= 67108864000 cpu:              12.1 elap:               0.5
 (Enter /cm/shared/apps/gaussian/intel/EM64T/SSE4_2-enabled/binary//g16/l811.exe)
 MDV= 67108864000.
 Form MO integral derivatives with frozen-active canonical formalism.
 MOERI=1 MOERIx=1 NAtoms=    10 NAtomX=    10.
 Discarding MO integrals.
 MO basis two electron integral derivatives will not be stored on disk.
 IAlg= 3 DoFC=T DoPWx=T Debug=F.
 Reordered first order wavefunction length =      3500658
 In DefCFB: NBatch=  1 ICI= 21 ICA= 63 LFMax= 63
            Large arrays: LIAPS=    37340352 LIARS=    30339036 words.
 In StABat: MaxSiz= 39 MinSiz= 11 NAtomB=  3
 DoIAMN: NPSUse= 28.
 Leave Link  811 at Wed May 11 21:23:08 2022, MaxMem= 67108864000 cpu:             199.1 elap:               7.1
 (Enter /cm/shared/apps/gaussian/intel/EM64T/SSE4_2-enabled/binary//g16/l804.exe)
 Closed-shell transformation, MDV= 67108864000 ITran=4 ISComp=1.
 Semi-Direct transformation.
 ModeAB=           2 MOrb=            21 LenV=   67108557886
 LASXX=      5044263 LTotXX=     5044263 LenRXX=     5044263
 LTotAB=     5242167 MaxLAS=     6297480 LenRXY=     6297480
 NonZer=    10088526 LenScr=    15880704 LnRSAI=           0
 LnScr1=           0 LExtra=           0 Total=     27222447
 MaxDsk=          -1 SrtSym=           F ITran=            4
 DoSDTr:  NPSUse= 28
 JobTyp=0 Pass  1:  I=   1 to  21.
 (rs|ai) integrals will be sorted in core.
 Complete sort for first half transformation.
 First half transformation complete.
 Begin second half transformation for I=  10.
 Begin second half transformation for I=  20.
 Begin second half transformation for I=  10.
 Begin second half transformation for I=  20.
 Complete sort for second half transformation.
 Second half transformation complete.
 SymMOI:  orbitals are not symmetric.
 Spin components of T(2) and E(2):
     alpha-alpha T2 =       0.2071671098D-01 E2=     -0.6719134271D-01
     alpha-beta  T2 =       0.1180413374D+00 E2=     -0.3835020957D+00
     beta-beta   T2 =       0.2071671098D-01 E2=     -0.6719134271D-01
 ANorm=    0.1522809745D+01
 E2 =    -0.5178847811D+00 EUMP2 =    -0.20312266690761D+03
 Leave Link  804 at Wed May 11 21:23:09 2022, MaxMem= 67108864000 cpu:              28.3 elap:               1.0
 (Enter /cm/shared/apps/gaussian/intel/EM64T/SSE4_2-enabled/binary//g16/l1002.exe)
 Minotr:  Closed shell wavefunction.
          Computing MP2/KS-MP2 derivatives.
          Using Z-Vector for PSCF gradient.
          Skipping F1 and S1 gradient terms here.
          IDoAtm=1111111111
          Using MO integrals in the linear equations.
          Forming densities via direct SCF.
          Differentiating once with respect to electric field.
                with respect to dipole field.
          Differentiating once with respect to nuclear coordinates.
          Requested convergence is 1.0D-10 RMS, and 1.0D-09 maximum.
          NewPWx=F KeepS1=T KeepF1=T KeepIn=T MapXYZ=F SortEE=F KeepMc=T.
          MDV=   67108864000 using IRadAn=       5.
          Solving linear equations separately, MaxMat=       0.
          There are     1 degrees of freedom in the 1st order CPHF.  IDoFFX=0 NUNeed=     1.
 FoFJK:  IHMeth= 1 ICntrl=       0 DoSepK=F KAlg= 0 I1Cent=           0 FoldK=F
 IRaf=         0 NMat=       1 IRICut=       1 DoRegI=T DoRafI=F ISym2E= 0 IDoP0=0 IntGTp=1.
 FoFCou: FMM=F IPFlag=           0 FMFlag=      100000 FMFlg1=           0
         NFxFlg=           0 DoJE=F BraDBF=F KetDBF=F FulRan=T
         wScrn=  0.000000 ICntrl=         0 IOpCl=  0 I1Cent=           0 NGrid=           0
         NMat0=    1 NMatS0=      1 NMatT0=    0 NMatD0=    1 NMtDS0=    0 NMtDT0=    0
 Symmetry not used in FoFCou.
 LinEq1:  Iter=  0 NonCon=     1 RMS=7.93D-03 Max=1.39D-01 NDo=     1
 LinEq1:  Iter=  1 NonCon=     1 RMS=1.86D-03 Max=1.17D-02 NDo=     1
 LinEq1:  Iter=  2 NonCon=     1 RMS=6.15D-04 Max=9.21D-03 NDo=     1
 LinEq1:  Iter=  3 NonCon=     1 RMS=2.56D-04 Max=2.70D-03 NDo=     1
 LinEq1:  Iter=  4 NonCon=     1 RMS=6.89D-05 Max=7.74D-04 NDo=     1
 LinEq1:  Iter=  5 NonCon=     1 RMS=1.86D-05 Max=1.97D-04 NDo=     1
 LinEq1:  Iter=  6 NonCon=     1 RMS=7.11D-06 Max=5.53D-05 NDo=     1
 LinEq1:  Iter=  7 NonCon=     1 RMS=1.24D-06 Max=1.19D-05 NDo=     1
 LinEq1:  Iter=  8 NonCon=     1 RMS=4.08D-07 Max=3.65D-06 NDo=     1
 LinEq1:  Iter=  9 NonCon=     1 RMS=1.19D-07 Max=9.87D-07 NDo=     1
 LinEq1:  Iter= 10 NonCon=     1 RMS=1.87D-08 Max=2.11D-07 NDo=     1
 LinEq1:  Iter= 11 NonCon=     1 RMS=2.75D-09 Max=3.23D-08 NDo=     1
 LinEq1:  Iter= 12 NonCon=     1 RMS=4.04D-10 Max=3.38D-09 NDo=     1
 LinEq1:  Iter= 13 NonCon=     0 RMS=5.07D-11 Max=5.79D-10 NDo=     1
 Linear equations converged to 1.000D-10 1.000D-09 after    13 iterations.
 End of Minotr F.D. properties file   721 does not exist.
 End of Minotr F.D. properties file   722 does not exist.
 End of Minotr F.D. properties file   788 does not exist.
 Leave Link 1002 at Wed May 11 21:23:10 2022, MaxMem= 67108864000 cpu:              23.4 elap:               0.9
 (Enter /cm/shared/apps/gaussian/intel/EM64T/SSE4_2-enabled/binary//g16/l1102.exe)
 Use density number 2.
 Symmetrizing basis deriv contribution to polar:
 IMax=3 JMax=2 DiffMx= 0.00D+00
 Leave Link 1102 at Wed May 11 21:23:10 2022, MaxMem= 67108864000 cpu:               0.8 elap:               0.1
 (Enter /cm/shared/apps/gaussian/intel/EM64T/SSE4_2-enabled/binary//g16/l1110.exe)
 Forming Gx(P) for generalized density number  2 NAtomX=    10.
 Integral derivatives from FoFJK, PRISM(SPDF).
 Do as many integral derivatives as possible in FoFJK.
 G2DrvN: MDV=   67108863164.
 G2DrvN: will do    11 centers at a time, making    1 passes.
 Calling FoFCou, ICntrl=  3107 FMM=F I1Cent=   0 AccDes= 0.00D+00.
 FoFJK:  IHMeth= 1 ICntrl=    3107 DoSepK=F KAlg= 0 I1Cent=           0 FoldK=F
 IRaf=         0 NMat=       1 IRICut=       1 DoRegI=T DoRafI=F ISym2E= 0 IDoP0=0 IntGTp=1.
 FoFCou: FMM=F IPFlag=           0 FMFlag=      100000 FMFlg1=           0
         NFxFlg=           0 DoJE=F BraDBF=F KetDBF=F FulRan=T
         wScrn=  0.000000 ICntrl=      3107 IOpCl=  0 I1Cent=           0 NGrid=           0
         NMat0=    1 NMatS0=      1 NMatT0=    0 NMatD0=    1 NMtDS0=    0 NMtDT0=    0
 Symmetry not used in FoFCou.
 End of G2Drv F.D. properties file   721 does not exist.
 End of G2Drv F.D. properties file   722 does not exist.
 End of G2Drv F.D. properties file   788 does not exist.
 Leave Link 1110 at Wed May 11 21:23:10 2022, MaxMem= 67108864000 cpu:               8.7 elap:               0.3
 (Enter /cm/shared/apps/gaussian/intel/EM64T/SSE4_2-enabled/binary//g16/l1112.exe)
 MP22nd: MDV=   67108864000
 This link is doing NAtomX=    10 total of    33 degrees of freedom.
 Using ON3 I/O method in MakUI.
 Using Ix for Sx.
 Using OV2 memory method for fx*t*t/D, MaxI=    21 DoOO2=F NP=  28.
 R2 and R3 integrals will be kept in memory, NReq=    13568470.
 FoFCou: FMM=F IPFlag=           0 FMFlag=           0 FMFlg1=           0
         NFxFlg=           0 DoJE=F BraDBF=F KetDBF=F FulRan=T
         wScrn=  0.000000 ICntrl=       600 IOpCl=  0 I1Cent=           0 NGrid=           0
         NMat0=    1 NMatS0=      1 NMatT0=    0 NMatD0=    1 NMtDS0=    0 NMtDT0=    0
 Symmetry not used in FoFCou.
 DD1Dir will call FoFMem   1 times, MxPair=       462
 NAB=   231 NAA=     0 NBB=     0.
 Symmetry is being used.
 FoFJK:  IHMeth= 1 ICntrl=       0 DoSepK=F KAlg= 0 I1Cent=           0 FoldK=F
 IRaf=         0 NMat=      33 IRICut=      82 DoRegI=T DoRafI=T ISym2E= 2 IDoP0=0 IntGTp=1.
 Discarding MO integrals.
 Leave Link 1112 at Wed May 11 21:23:17 2022, MaxMem= 67108864000 cpu:             179.0 elap:               6.5
 (Enter /cm/shared/apps/gaussian/intel/EM64T/SSE4_2-enabled/binary//g16/l601.exe)
 Copying SCF densities to generalized density rwf, IOpCl= 0 IROHF=0.

 **********************************************************************

            Population analysis using the SCF density.

 **********************************************************************

 Orbital symmetries:
       Occupied  (A) (A) (A) (A) (A) (A) (A) (A) (A) (A) (A) (A)
                 (A) (A) (A) (A) (A) (A) (A) (A) (A)
       Virtual   (A) (A) (A) (A) (A) (A) (A) (A) (A) (A) (A) (A)
                 (A) (A) (A) (A) (A) (A) (A) (A) (A) (A) (A) (A)
                 (A) (A) (A) (A) (A) (A) (A) (A) (A) (A) (A) (A)
                 (A) (A) (A) (A) (A) (A) (A) (A) (A) (A) (A) (A)
                 (A) (A) (A) (A) (A) (A) (A) (A) (A) (A) (A) (A)
                 (A) (A) (A)
 The electronic state is 1-A.
 Alpha  occ. eigenvalues --   -5.49370  -3.49000  -3.48413  -3.48403  -1.80686
 Alpha  occ. eigenvalues --   -1.79242  -1.67273  -1.15072  -1.14810  -1.13459
 Alpha  occ. eigenvalues --   -1.12618  -1.08206  -1.05593  -1.05068  -1.05065
 Alpha  occ. eigenvalues --   -0.98815  -0.96881  -0.95214  -0.92274  -0.85567
 Alpha  occ. eigenvalues --   -0.84795
 Alpha virt. eigenvalues --   -0.31010  -0.23626  -0.23390  -0.20266  -0.17847
 Alpha virt. eigenvalues --   -0.14748  -0.11123  -0.10797  -0.09750  -0.09309
 Alpha virt. eigenvalues --   -0.08373  -0.07484  -0.06789  -0.04752  -0.04589
 Alpha virt. eigenvalues --   -0.03870  -0.02262  -0.00994   0.00008   0.03163
 Alpha virt. eigenvalues --    0.03323   0.05378   0.07244   0.07309   0.09918
 Alpha virt. eigenvalues --    0.10968   0.13819   0.18019   0.19704   0.30573
 Alpha virt. eigenvalues --    0.55887   0.55964   0.60014   0.61756   0.87607
 Alpha virt. eigenvalues --    0.96045   0.99084   1.01749   1.02524   1.03885
 Alpha virt. eigenvalues --    1.06261   1.06292   1.09020   1.10037   1.11457
 Alpha virt. eigenvalues --    1.11814   1.15018   1.15343   1.16898   1.20833
 Alpha virt. eigenvalues --    1.22698   1.30857   1.36096   1.52197   2.20583
 Alpha virt. eigenvalues --    2.59430   2.83869   4.16939  15.41616  41.51322
 Alpha virt. eigenvalues --   41.51858  41.64211  81.39891
          Condensed to atoms (all electrons):
               1          2          3          4          5          6
     1  Hg  18.364003   0.108747  -0.002321  -0.002326   0.149516   0.000811
     2  O    0.108747   6.322142   0.242636   0.242620  -0.000057   0.000021
     3  H   -0.002321   0.242636   0.196277  -0.009947  -0.000021   0.000000
     4  H   -0.002326   0.242620  -0.009947   0.196261  -0.000022   0.000000
     5  O    0.149516  -0.000057  -0.000021  -0.000022   6.661080   0.072270
     6  H    0.000811   0.000021   0.000000   0.000000   0.072270   0.129071
     7  H   -0.013518  -0.000075  -0.000000  -0.000000   0.242459  -0.002078
     8  O    0.002117   0.000002   0.000000   0.000000  -0.023086   0.148615
     9  H    0.000088   0.000001  -0.000000  -0.000000   0.001418  -0.003452
    10  H    0.000088   0.000000  -0.000000  -0.000000   0.001396  -0.003443
               7          8          9         10
     1  Hg  -0.013518   0.002117   0.000088   0.000088
     2  O   -0.000075   0.000002   0.000001   0.000000
     3  H   -0.000000   0.000000  -0.000000  -0.000000
     4  H   -0.000000   0.000000  -0.000000  -0.000000
     5  O    0.242459  -0.023086   0.001418   0.001396
     6  H   -0.002078   0.148615  -0.003452  -0.003443
     7  H    0.247601   0.001341  -0.000009  -0.000009
     8  O    0.001341   6.202895   0.245961   0.245990
     9  H   -0.000009   0.245961   0.202579  -0.008019
    10  H   -0.000009   0.245990  -0.008019   0.202663
 Mulliken charges:
               1
     1  Hg   1.392795
     2  O   -0.916037
     3  H    0.573376
     4  H    0.573414
     5  O   -1.104953
     6  H    0.658184
     7  H    0.524289
     8  O   -0.823835
     9  H    0.561433
    10  H    0.561334
 Sum of Mulliken charges =   2.00000
 Mulliken charges with hydrogens summed into heavy atoms:
               1
     1  Hg   1.392795
     2  O    0.230753
     5  O   -0.580664
     8  O    0.957116
         Mulliken charges condensed to fragments:
      1      1.392795
      2      0.607205
 APT charges:
               1
     1  Hg   1.347688
     2  O   -0.677751
     3  H    0.434403
     4  H    0.434507
     5  O   -0.889984
     6  H    0.889256
     7  H    0.310291
     8  O   -0.791040
     9  H    0.471341
    10  H    0.471289
 Sum of APT charges =   2.00000
 APT charges with hydrogens summed into heavy atoms:
               1
     1  Hg   1.347688
     2  O    0.191159
     5  O   -0.579693
     8  O    1.040847
         APT charges condensed to fragments:
      1      1.347688
      2      0.652312
 Electronic spatial extent (au):  <R**2>=            756.3066
 Charge=              2.0000 electrons
 Dipole moment (field-independent basis, Debye):
    X=             -4.6322    Y=              0.8579    Z=             -0.0061  Tot=              4.7110
 Quadrupole moment (field-independent basis, Debye-Ang):
   XX=             46.5620   YY=            -34.7349   ZZ=            -30.9539
   XY=             -0.5951   XZ=             -0.0023   YZ=             -0.0682
 Traceless Quadrupole moment (field-independent basis, Debye-Ang):
   XX=             52.9376   YY=            -28.3593   ZZ=            -24.5783
   XY=             -0.5951   XZ=             -0.0023   YZ=             -0.0682
 Octapole moment (field-independent basis, Debye-Ang**2):
  XXX=           -156.9155  YYY=             17.9139  ZZZ=              0.0145  XYY=              5.5741
  XXY=            -18.3164  XXZ=              0.0375  XZZ=              7.9974  YZZ=             -1.9379
  YYZ=              0.0040  XYZ=              0.1390
 Hexadecapole moment (field-independent basis, Debye-Ang**3):
 XXXX=            543.7798 YYYY=            -67.9908 ZZZZ=            -27.8230 XXXY=             54.4600
 XXXZ=             -0.1954 YYYX=            -11.1085 YYYZ=             -0.1250 ZZZX=             -0.0500
 ZZZY=             -0.0533 XXYY=           -155.0452 XXZZ=            -61.2714 YYZZ=            -17.2259
 XXYZ=             -0.6229 YYXZ=             -0.0212 ZZXY=              4.6141
 N-N= 1.449202792957D+02 E-N=-7.153336878494D+02  KE= 9.140006982054D+01
  Exact polarizability:  52.937  -2.048  26.806  -0.012  -0.026  27.790
 Approx polarizability:  28.723  -0.350  19.160  -0.004  -0.033  20.633
 No NMR shielding tensors so no spin-rotation constants.
 Leave Link  601 at Wed May 11 21:23:17 2022, MaxMem= 67108864000 cpu:               4.1 elap:               0.2
 (Enter /cm/shared/apps/gaussian/intel/EM64T/SSE4_2-enabled/binary//g16/l701.exe)
 ... and contract with generalized density number  2.
 Compute integral second derivatives.
   1 Symmetry operations used in ECPInt.
 ECPInt:  NShTT=     861 NPrTT=    2675 LenC2=     848 LenP2D=    2249.
 LDataN:  DoStor=T MaxTD1= 9 Len=  602
 Leave Link  701 at Wed May 11 21:23:18 2022, MaxMem= 67108864000 cpu:              32.7 elap:               1.2
 (Enter /cm/shared/apps/gaussian/intel/EM64T/SSE4_2-enabled/binary//g16/l702.exe)
 L702 exits ... SP integral derivatives will be done elsewhere.
 Leave Link  702 at Wed May 11 21:23:18 2022, MaxMem= 67108864000 cpu:               0.7 elap:               0.0
 (Enter /cm/shared/apps/gaussian/intel/EM64T/SSE4_2-enabled/binary//g16/l703.exe)
 Integral derivatives from FoFJK, PRISM(SPDF).
 Compute integral second derivatives, UseDBF=F ICtDFT=           0.
 Calling FoFJK, ICntrl=  10100127 FMM=F ISym2X=0 I1Cent= 0 IOpClX= 0 NMat=1 NMatS=1 NMatT=0.
 FoFJK:  IHMeth= 1 ICntrl=10100127 DoSepK=F KAlg= 0 I1Cent=           0 FoldK=F
 IRaf=         0 NMat=       1 IRICut=       1 DoRegI=T DoRafI=F ISym2E= 0 IDoP0=0 IntGTp=1.
 FoFCou: FMM=F IPFlag=           0 FMFlag=      100000 FMFlg1=         800
         NFxFlg=           0 DoJE=F BraDBF=F KetDBF=F FulRan=T
         wScrn=  0.000000 ICntrl=  10100127 IOpCl=  0 I1Cent=           0 NGrid=           0
         NMat0=    1 NMatS0=      1 NMatT0=    0 NMatD0=    1 NMtDS0=    0 NMtDT0=    0
 Symmetry not used in FoFCou.
 Leave Link  703 at Wed May 11 21:23:19 2022, MaxMem= 67108864000 cpu:              16.7 elap:               0.6
 (Enter /cm/shared/apps/gaussian/intel/EM64T/SSE4_2-enabled/binary//g16/l716.exe)
 Dipole        =-1.98750240D+00 2.81200954D-01-2.04935984D-03
 Polarizability= 5.29373092D+01-2.04799418D+00 2.68060160D+01
                -1.15430781D-02-2.63831860D-02 2.77903668D+01
 Full mass-weighted force constant matrix:
 Low frequencies --- -265.0625 -166.5339 -122.7555  -54.5116  -53.9269   -0.0002
 Low frequencies ---   -0.0002   -0.0001   60.3075
 ******    3 imaginary frequencies (negative Signs) ****** 
 Diagonal vibrational polarizability:
      117.4254366     268.3117451     809.0987681
 Harmonic frequencies (cm**-1), IR intensities (KM/Mole), Raman scattering
 activities (A**4/AMU), depolarization ratios for plane and unpolarized
 incident light, reduced masses (AMU), force constants (mDyne/A),
 and normal coordinates:
                      1                      2                      3
                      A                      A                      A
 Frequencies --   -259.4404              -138.9751               -32.7636
 Red. masses --      1.0364                 1.0570                 2.4489
 Frc consts  --      0.0411                 0.0120                 0.0015
 IR Inten    --     42.1893               119.0073                22.9063
  Atom  AN      X      Y      Z        X      Y      Z        X      Y      Z
     1  80    -0.00  -0.00   0.00     0.00   0.00  -0.01    -0.00   0.00  -0.04
     2   8     0.00   0.00   0.01     0.00   0.00   0.05    -0.00  -0.00   0.20
     3   1     0.17   0.64  -0.22    -0.04  -0.03   0.08    -0.14   0.03   0.29
     4   1    -0.17  -0.64  -0.22     0.04   0.03   0.08     0.14  -0.03   0.29
     5   8     0.00  -0.00   0.03    -0.00  -0.00  -0.01     0.00   0.00   0.19
     6   1     0.00  -0.00   0.00    -0.00  -0.00  -0.01     0.00   0.00   0.09
     7   1     0.00   0.00   0.07    -0.00  -0.00   0.00    -0.00   0.00   0.80
     8   8    -0.00   0.00  -0.03    -0.00   0.00  -0.01     0.00  -0.00   0.02
     9   1     0.00  -0.07  -0.02     0.30  -0.57   0.27    -0.12   0.10  -0.08
    10   1    -0.00   0.07  -0.02    -0.30   0.57   0.28     0.13  -0.10  -0.08
                      4                      5                      6
                      A                      A                      A
 Frequencies --     56.2344               125.3203               275.9106
 Red. masses --      5.0964                 6.0911                 1.2546
 Frc consts  --      0.0095                 0.0564                 0.0563
 IR Inten    --     27.3305                20.4025               105.9982
  Atom  AN      X      Y      Z        X      Y      Z        X      Y      Z
     1  80     0.01  -0.04  -0.00    -0.04  -0.05   0.00     0.00   0.00   0.01
     2   8     0.15   0.34   0.00     0.05   0.23  -0.00    -0.00   0.00  -0.03
     3   1     0.12   0.46   0.00     0.03   0.31  -0.00     0.03   0.00  -0.05
     4   1     0.13   0.46   0.01     0.03   0.31   0.00    -0.03  -0.00  -0.05
     5   8    -0.02  -0.12   0.00     0.07   0.29  -0.00    -0.00  -0.00  -0.12
     6   1    -0.13   0.00   0.00     0.26   0.30  -0.00    -0.00   0.00  -0.31
     7   1     0.00  -0.11   0.01     0.20   0.30  -0.00     0.00   0.00   0.79
     8   8    -0.23   0.20   0.00     0.36   0.05  -0.00    -0.00   0.00   0.00
     9   1    -0.22   0.30  -0.00     0.34  -0.07   0.00     0.26   0.19   0.15
    10   1    -0.20   0.29  -0.00     0.33  -0.07   0.01    -0.26  -0.20   0.15
                      7                      8                      9
                      A                      A                      A
 Frequencies --    331.9450               389.5617               498.2868
 Red. masses --      4.2818                 1.2329                 7.5482
 Frc consts  --      0.2780                 0.1102                 1.1042
 IR Inten    --    162.7637                58.4239                21.5502
  Atom  AN      X      Y      Z        X      Y      Z        X      Y      Z
     1  80     0.01  -0.01  -0.00     0.00  -0.00   0.00    -0.04   0.02   0.00
     2   8     0.07  -0.01   0.00     0.00  -0.00  -0.01     0.57  -0.24  -0.00
     3   1     0.06   0.05  -0.00     0.01  -0.02  -0.02     0.52   0.10  -0.01
     4   1     0.06   0.05   0.00    -0.01   0.02  -0.02     0.52   0.11   0.01
     5   8     0.04   0.34   0.00     0.00   0.00  -0.11    -0.15  -0.01  -0.00
     6   1    -0.48   0.05  -0.01    -0.00  -0.00   0.45     0.06   0.06   0.00
     7   1     0.26   0.36  -0.01     0.00   0.01   0.39    -0.15  -0.01   0.00
     8   8    -0.25  -0.17  -0.00    -0.00  -0.00   0.05     0.05   0.04   0.00
     9   1    -0.26  -0.30   0.02    -0.42  -0.33  -0.19     0.04   0.01  -0.00
    10   1    -0.28  -0.32  -0.01     0.41   0.32  -0.19     0.04   0.01   0.00
                     10                     11                     12
                      A                      A                      A
 Frequencies --    652.9796               703.8596               717.8366
 Red. masses --      5.4950                 1.1882                 1.2398
 Frc consts  --      1.3804                 0.3468                 0.3764
 IR Inten    --    178.3716               236.5311               381.4100
  Atom  AN      X      Y      Z        X      Y      Z        X      Y      Z
     1  80    -0.04   0.01   0.00     0.01   0.00   0.00     0.01  -0.00   0.00
     2   8     0.06  -0.07  -0.00    -0.04  -0.09  -0.00    -0.01  -0.01  -0.00
     3   1     0.00   0.31  -0.02    -0.15   0.67  -0.03    -0.03   0.13  -0.01
     4   1     0.00   0.31   0.02    -0.15   0.67   0.04    -0.03   0.13   0.01
     5   8     0.50  -0.08  -0.00    -0.03  -0.01  -0.00    -0.06   0.06  -0.00
     6   1     0.02  -0.41  -0.00    -0.04   0.09   0.00     0.20  -0.34  -0.00
     7   1     0.41  -0.09   0.00    -0.03  -0.00  -0.00    -0.18   0.05   0.00
     8   8    -0.05  -0.07  -0.00     0.01   0.02   0.00    -0.00  -0.09  -0.00
     9   1     0.01   0.31  -0.00    -0.01  -0.14   0.01     0.05   0.61  -0.04
    10   1     0.01   0.31   0.01    -0.01  -0.14  -0.01     0.05   0.61   0.05
                     13                     14                     15
                      A                      A                      A
 Frequencies --    790.3769              1082.8609              1385.8317
 Red. masses --      1.1147                 1.1079                 1.0805
 Frc consts  --      0.4103                 0.7654                 1.2226
 IR Inten    --     42.8566               123.0722               296.9168
  Atom  AN      X      Y      Z        X      Y      Z        X      Y      Z
     1  80    -0.00  -0.00   0.00    -0.00   0.00  -0.00     0.00  -0.00   0.00
     2   8     0.00   0.00  -0.08    -0.00  -0.00   0.00     0.00  -0.00   0.00
     3   1    -0.59   0.26   0.28    -0.00   0.01  -0.00    -0.00  -0.00   0.00
     4   1     0.59  -0.27   0.28    -0.00   0.01   0.00    -0.00  -0.00  -0.00
     5   8     0.00   0.00  -0.01    -0.06  -0.04   0.00     0.04  -0.01  -0.00
     6   1     0.00  -0.00  -0.00    -0.22   0.30   0.00    -0.31   0.75   0.01
     7   1     0.00   0.00  -0.02     0.88   0.03  -0.00    -0.44  -0.05   0.00
     8   8    -0.00  -0.00   0.00     0.02  -0.04  -0.00     0.02  -0.05  -0.00
     9   1     0.00   0.01   0.00    -0.01   0.19  -0.04    -0.15   0.19  -0.11
    10   1    -0.00  -0.00   0.00    -0.01   0.19   0.04    -0.15   0.19   0.12
                     16                     17                     18
                      A                      A                      A
 Frequencies --   1749.0607              1769.5330              1785.3712
 Red. masses --      1.0852                 1.0374                 1.0608
 Frc consts  --      1.9560                 1.9139                 1.9922
 IR Inten    --    143.8224                 6.8884               142.8349
  Atom  AN      X      Y      Z        X      Y      Z        X      Y      Z
     1  80    -0.00  -0.00  -0.00     0.00  -0.00  -0.00    -0.00   0.00  -0.00
     2   8    -0.07  -0.01  -0.00    -0.00   0.00   0.00     0.00  -0.00   0.00
     3   1     0.58   0.07  -0.40     0.01  -0.00  -0.00    -0.00   0.00   0.00
     4   1     0.58   0.07   0.40     0.01  -0.00   0.00    -0.00  -0.00   0.00
     5   8     0.00   0.00  -0.00     0.00  -0.01  -0.00    -0.00   0.00  -0.01
     6   1     0.00   0.00   0.00    -0.35   0.11   0.03     0.01  -0.01   0.87
     7   1    -0.00  -0.00   0.00    -0.09  -0.01   0.00     0.01   0.00   0.02
     8   8     0.00  -0.00  -0.00    -0.04  -0.01  -0.00     0.00   0.00  -0.06
     9   1    -0.01  -0.00  -0.00     0.55   0.06   0.36     0.25   0.19   0.09
    10   1    -0.01  -0.00   0.00     0.53   0.05  -0.36    -0.28  -0.19   0.11
                     19                     20                     21
                      A                      A                      A
 Frequencies --   2149.8036              3590.8412              3602.9611
 Red. masses --      1.1108                 1.0405                 1.0407
 Frc consts  --      3.0248                 7.9050                 7.9600
 IR Inten    --   3845.5472               337.5847               166.1280
  Atom  AN      X      Y      Z        X      Y      Z        X      Y      Z
     1  80    -0.00   0.00  -0.00     0.00   0.00  -0.00     0.00  -0.00  -0.00
     2   8     0.00  -0.00   0.00     0.05   0.01  -0.00    -0.01  -0.00   0.00
     3   1     0.00   0.00   0.01    -0.36  -0.08  -0.59     0.05   0.01   0.08
     4   1     0.00   0.00  -0.01    -0.36  -0.08   0.60     0.05   0.01  -0.08
     5   8     0.01   0.00   0.00    -0.00  -0.00   0.00    -0.00  -0.00  -0.00
     6   1     0.84   0.49   0.00     0.01   0.00  -0.00     0.01  -0.02  -0.00
     7   1     0.08  -0.00  -0.00    -0.00   0.02  -0.00     0.00  -0.00   0.00
     8   8    -0.08  -0.03  -0.00     0.01  -0.00  -0.00     0.05  -0.01  -0.00
     9   1     0.10  -0.02   0.11    -0.05   0.01   0.08    -0.37   0.06   0.60
    10   1     0.10  -0.02  -0.11    -0.05   0.01  -0.08    -0.36   0.06  -0.58
                     22                     23                     24
                      A                      A                      A
 Frequencies --   3685.3869              3691.0799              3692.6041
 Red. masses --      1.0665                 1.0860                 1.0849
 Frc consts  --      8.5344                 8.7176                 8.7154
 IR Inten    --    157.6367               230.5206               424.2577
  Atom  AN      X      Y      Z        X      Y      Z        X      Y      Z
     1  80    -0.00  -0.00   0.00    -0.00  -0.00  -0.00    -0.00   0.00  -0.00
     2   8    -0.00  -0.00   0.00    -0.00   0.00  -0.07    -0.00   0.00  -0.01
     3   1     0.01   0.00   0.01     0.40   0.10   0.57     0.06   0.01   0.08
     4   1     0.01   0.00  -0.02    -0.39  -0.10   0.56    -0.06  -0.01   0.08
     5   8     0.01  -0.06   0.00     0.00  -0.00  -0.00     0.00   0.00  -0.00
     6   1     0.01   0.00   0.00     0.00  -0.00   0.00    -0.00   0.00  -0.01
     7   1    -0.08   0.99  -0.01    -0.00   0.00  -0.00     0.00  -0.00  -0.00
     8   8    -0.00   0.00  -0.00     0.00  -0.00   0.01    -0.00   0.00  -0.07
     9   1    -0.00  -0.00  -0.00     0.05  -0.01  -0.08    -0.39   0.08   0.57
    10   1     0.00  -0.00   0.00    -0.06   0.01  -0.08     0.40  -0.08   0.58

 -------------------
 - Thermochemistry -
 -------------------
 Temperature   298.150 Kelvin.  Pressure   1.00000 Atm.
 Atom     1 has atomic number 80 and mass 201.97060
 Atom     2 has atomic number  8 and mass  15.99491
 Atom     3 has atomic number  1 and mass   1.00783
 Atom     4 has atomic number  1 and mass   1.00783
 Atom     5 has atomic number  8 and mass  15.99491
 Atom     6 has atomic number  1 and mass   1.00783
 Atom     7 has atomic number  1 and mass   1.00783
 Atom     8 has atomic number  8 and mass  15.99491
 Atom     9 has atomic number  1 and mass   1.00783
 Atom    10 has atomic number  1 and mass   1.00783
 Molecular mass:   256.00229 amu.
 Principal axes and moments of inertia in atomic units:
                           1         2         3
     Eigenvalues --    95.594701554.222661631.39600
           X            0.99999  -0.00443  -0.00000
           Y            0.00443   0.99999  -0.00089
           Z            0.00001   0.00089   1.00000
 This molecule is an asymmetric top.
 Rotational symmetry number  1.
 Rotational temperatures (Kelvin)      0.90605     0.05573     0.05309
 Rotational constants (GHZ):          18.87909     1.16119     1.10626
    3 imaginary frequencies ignored.
 Zero-point vibrational energy     195754.8 (Joules/Mol)
                                   46.78652 (Kcal/Mol)
 Warning -- explicit consideration of   6 degrees of freedom as
           vibrations may cause significant error
 Vibrational temperatures:     80.91   180.31   396.97   477.59   560.49
          (Kelvin)            716.92   939.49  1012.70  1032.81  1137.18
                             1558.00  1993.90  2516.51  2545.96  2568.75
                             3093.09  5166.42  5183.86  5302.45  5310.64
                             5312.83
 
 Zero-point correction=                           0.074559 (Hartree/Particle)
 Thermal correction to Energy=                    0.080749
 Thermal correction to Enthalpy=                  0.081694
 Thermal correction to Gibbs Free Energy=         0.042330
 Sum of electronic and zero-point Energies=           -203.048108
 Sum of electronic and thermal Energies=              -203.041918
 Sum of electronic and thermal Enthalpies=            -203.040973
 Sum of electronic and thermal Free Energies=         -203.080337
 
                     E (Thermal)             CV                S
                      KCal/Mol        Cal/Mol-Kelvin    Cal/Mol-Kelvin
 Total                   50.671             19.645             82.848
 Electronic               0.000              0.000              0.000
 Translational            0.889              2.981             42.520
 Rotational               0.889              2.981             26.985
 Vibrational             48.894             13.683             13.343
 Vibration     1          0.596              1.975              4.585
 Vibration     2          0.610              1.928              3.017
 Vibration     3          0.678              1.718              1.559
 Vibration     4          0.714              1.612              1.251
 Vibration     5          0.757              1.492              1.002
 Vibration     6          0.854              1.254              0.662
                       Q            Log10(Q)             Ln(Q)
 Total Bot       0.338621D-19        -19.470286        -44.831989
 Total V=0       0.667532D+15         14.824472         34.134609
 Vib (Bot)       0.119343D-32        -32.923204        -75.808479
 Vib (Bot)    1  0.367373D+01          0.565107          1.301207
 Vib (Bot)    2  0.162863D+01          0.211822          0.487738
 Vib (Bot)    3  0.698320D+00         -0.155945         -0.359078
 Vib (Bot)    4  0.562208D+00         -0.250103         -0.575884
 Vib (Bot)    5  0.460998D+00         -0.336301         -0.774362
 Vib (Bot)    6  0.330337D+00         -0.481043         -1.107642
 Vib (V=0)       0.235263D+02          1.371554          3.158119
 Vib (V=0)    1  0.420760D+01          0.624034          1.436892
 Vib (V=0)    2  0.220365D+01          0.343143          0.790116
 Vib (V=0)    3  0.135887D+01          0.133177          0.306651
 Vib (V=0)    4  0.125238D+01          0.097737          0.225047
 Vib (V=0)    5  0.118009D+01          0.071914          0.165589
 Vib (V=0)    6  0.109927D+01          0.041104          0.094645
 Electronic      0.100000D+01          0.000000          0.000000
 Translational   0.160998D+09          8.206820         18.896901
 Rotational      0.176238D+06          5.246099         12.079589
 
                      file 'w3s1.log' Now we use Def2-QZVPPD, but it was opt at: 
 ---' #p ZORA-SR+SO PBE QZ4P'---
                                                             IR Spectrum
 
    333 33                                                 2          111            1         1                                     
    666 65                                                 1          777            3         0         7 77 6    4   3 3 2    1    
    998 09                                                 5          874            8         8         9 10 5    9   9 3 7    2  5 
    315 31                                                 0          509            6         3         0 84 3    8   0 2 6    5  6 
 
    XXX XX                                                 X          XXX            X         X         X XX X    X   X X X    X  X 
    X    X                                                 X                         X                     X                         
                                                           X                                                                         
                                                           X                                                                         
                                                           X                                                                         
                                                           X                                                                         
                                                           X                                                                         
                                                           X                                                                         
                                                           X                                                                         
                                                           X                                                                         
                                                           X                                                                         
                                                           X                                                                         
                                                           X                                                                         
                                                           X                                                                         
                                                           X                                                                         
                                                           X                                                                         
                                                           X                                                                         
                                                           X                                                                         
                                                           X                                                                         
                                                           X                                                                         
 
 ***** Axes restored to original set *****
 -------------------------------------------------------------------
 Center     Atomic                   Forces (Hartrees/Bohr)
 Number     Number              X              Y              Z
 -------------------------------------------------------------------
      1       80           0.004300381    0.011409058   -0.000043983
      2        8           0.007525982   -0.018312738    0.000070366
      3        1           0.002539287    0.008606269   -0.007539244
      4        1           0.002470291    0.008615149    0.007452514
      5        8          -0.008772798   -0.003238197    0.000143107
      6        1           0.004814109    0.009665625   -0.000027787
      7        1          -0.007169661   -0.008902060   -0.000032479
      8        8          -0.005259578   -0.027295456   -0.000238080
      9        1          -0.000146563    0.009745579   -0.006963272
     10        1          -0.000301451    0.009706771    0.007178857
 -------------------------------------------------------------------
 Cartesian Forces:  Max     0.027295456 RMS     0.008584285
 Z-matrix is all fixed cartesians, so copy forces.
 Force constants in Cartesian coordinates: 
                1             2             3             4             5 
      1  0.384220D+00
      2  0.121125D+00  0.746828D-01
      3 -0.102319D-03 -0.161026D-03  0.318999D-01
      4 -0.135198D+00 -0.489231D-01 -0.121962D-05  0.506760D+00
      5 -0.325135D-01 -0.297431D-01  0.265750D-04 -0.306713D-01  0.694349D-01
      6  0.178702D-04  0.389875D-04 -0.341461D-01 -0.187763D-03 -0.352921D-03
      7 -0.107955D-01  0.109544D-02  0.116536D-01 -0.189555D+00  0.306352D-01
      8 -0.849847D-02  0.978430D-03  0.590321D-02  0.395303D-01 -0.229588D-01
      9  0.413691D-03 -0.989296D-03  0.601300D-02  0.158648D+00 -0.361241D-01
     10 -0.108018D-01  0.111718D-02 -0.116383D-01 -0.189725D+00  0.309031D-01
     11 -0.849922D-02  0.984362D-03 -0.590413D-02  0.397581D-01 -0.231415D-01
     12 -0.414607D-03  0.978455D-03  0.601436D-02 -0.158465D+00  0.364618D-01
     13 -0.206340D+00 -0.446374D-01 -0.114015D-03  0.641152D-02 -0.116423D-02
     14 -0.702818D-01 -0.474011D-01  0.708559D-04 -0.166870D-03  0.647214D-02
     15  0.180627D-03  0.140375D-03 -0.141322D-01  0.264307D-04 -0.957679D-05
     16 -0.100011D-01 -0.899720D-02  0.387672D-04  0.435476D-02  0.270136D-02
     17 -0.111024D-02  0.935389D-02 -0.318833D-04 -0.255501D-02 -0.190211D-02
     18 -0.282272D-04 -0.682050D-05  0.111213D-03  0.000000D+00  0.000000D+00
     19 -0.143551D-01 -0.270412D-01  0.174059D-03 -0.132961D-02  0.143735D-02
     20  0.110504D-02 -0.461350D-02  0.900377D-04  0.188280D-02  0.988198D-03
     21 -0.720658D-04 -0.368762D-05  0.336489D-02 -0.215449D-04 -0.249306D-05
     22  0.553803D-02  0.618100D-02 -0.125415D-04 -0.241570D-02 -0.148723D-02
     23 -0.224344D-02 -0.536153D-02  0.106234D-04  0.146059D-02  0.109379D-02
     24  0.495049D-05  0.597530D-05 -0.271449D-03  0.000000D+00  0.000000D+00
     25 -0.113293D-02  0.451339D-04 -0.238851D-03  0.348322D-03  0.788050D-04
     26  0.460721D-03  0.563793D-03 -0.292992D-03 -0.159406D-03 -0.122895D-03
     27 -0.667669D-03 -0.689066D-03  0.576339D-03  0.447440D-03  0.259005D-03
     28 -0.113426D-02  0.349917D-04  0.240814D-03  0.349939D-03  0.805448D-04
     29  0.455662D-03  0.555993D-03  0.288724D-03 -0.156047D-03 -0.120660D-03
     30  0.667750D-03  0.686105D-03  0.570081D-03 -0.447163D-03 -0.258461D-03
                6             7             8             9            10 
      6  0.679163D+00
      7  0.202964D+00  0.183271D+00
      8 -0.625115D-01 -0.305195D-01  0.157809D-01
      9 -0.326753D+00 -0.185877D+00  0.473713D-01  0.350044D+00
     10 -0.202800D+00  0.162058D-01 -0.660315D-03  0.275791D-01  0.183444D+00
     11  0.628410D-01 -0.629373D-03  0.604019D-02 -0.100159D-01 -0.307726D-01
     12 -0.326059D+00 -0.276205D-01  0.100669D-01 -0.287966D-01  0.185738D+00
     13  0.354370D-04  0.172597D-02  0.474841D-03 -0.144581D-02  0.173981D-02
     14 -0.209803D-04 -0.504448D-03  0.283767D-04 -0.148682D-03 -0.512989D-03
     15  0.683638D-02 -0.953193D-03 -0.842818D-03 -0.667321D-03  0.955788D-03
     16 -0.738006D-05 -0.814913D-03 -0.292658D-03  0.134487D-02 -0.818670D-03
     17  0.763833D-05  0.376907D-03  0.169658D-03 -0.812986D-03  0.380123D-03
     18  0.435187D-03 -0.616652D-04 -0.930308D-04  0.803135D-04  0.607438D-04
     19 -0.237233D-04 -0.334757D-03 -0.165037D-03 -0.108556D-03 -0.342699D-03
     20  0.000000D+00 -0.246752D-03  0.107148D-04  0.357452D-03 -0.246106D-03
     21  0.779090D-03 -0.137898D-03  0.789416D-04  0.208667D-04  0.136696D-03
     22  0.259389D-05  0.484039D-03  0.128848D-03 -0.766450D-03  0.485758D-03
     23 -0.261638D-05 -0.239126D-03 -0.159598D-03  0.470839D-03 -0.240595D-03
     24 -0.974527D-04  0.123691D-04  0.438645D-04 -0.687253D-04 -0.120323D-04
     25 -0.336027D-05 -0.934443D-04  0.807126D-05  0.891167D-04 -0.933793D-04
     26  0.702067D-04  0.382600D-05  0.585211D-04 -0.728971D-04  0.285742D-04
     27 -0.798912D-04 -0.610774D-04 -0.310841D-04  0.191462D-03 -0.817336D-04
     28  0.241467D-05 -0.933686D-04 -0.611168D-05  0.122595D-03 -0.938506D-04
     29 -0.688726D-04  0.278494D-04  0.516186D-04 -0.357935D-04  0.364561D-05
     30 -0.785538D-04  0.814159D-04  0.142002D-04 -0.643430D-04  0.614601D-04
               11            12            13            14            15 
     11  0.159626D-01
     12 -0.477529D-01  0.349350D+00
     13  0.475452D-03  0.143711D-02  0.277508D+00
     14  0.249469D-04  0.152732D-03  0.652755D-01  0.552022D+00
     15  0.844199D-03 -0.675413D-03 -0.296861D-03 -0.403968D-02  0.288631D-01
     16 -0.291416D-03 -0.134242D-02  0.782245D-02 -0.103984D-01 -0.500590D-04
     17  0.169637D-03  0.811471D-03 -0.257567D-01 -0.239294D-01  0.157410D-03
     18  0.924632D-04  0.801876D-04  0.147754D-03  0.214206D-04 -0.190567D-01
     19 -0.170966D-03  0.113890D-03 -0.387700D-01 -0.138081D-01  0.173018D-03
     20  0.902874D-05 -0.356654D-03 -0.288899D-01 -0.479674D+00  0.377251D-02
     21 -0.779170D-04  0.287629D-04  0.267058D-03  0.398675D-02 -0.897234D-02
     22  0.128055D-03  0.765500D-03 -0.487354D-01  0.270448D-01 -0.202130D-04
     23 -0.159302D-03 -0.470228D-03  0.327340D-01 -0.371122D-02 -0.155845D-04
     24 -0.437393D-04 -0.685834D-04 -0.547256D-04 -0.179585D-04  0.107661D-01
     25 -0.590041D-05 -0.122076D-03 -0.705555D-03  0.166929D-02  0.215680D-02
     26  0.519200D-04  0.365190D-04  0.729170D-03 -0.190356D-02 -0.126977D-02
     27 -0.140989D-04 -0.643067D-04  0.485847D-02 -0.139851D-02 -0.148895D-02
     28  0.784916D-05 -0.897463D-04 -0.657319D-03  0.168312D-02 -0.217234D-02
     29  0.581149D-04  0.719384D-04  0.759357D-03 -0.192830D-02  0.126293D-02
     30  0.309687D-04  0.191100D-03 -0.483443D-02  0.139405D-02 -0.147264D-02
               16            17            18            19            20 
     16  0.137373D+00
     17 -0.400235D-01  0.828363D-01
     18 -0.147686D-03 -0.276995D-03  0.896052D-01
     19  0.151425D-01  0.629622D-02 -0.120065D-03  0.500019D-01
     20 -0.568666D-02 -0.215946D-02  0.942143D-04  0.296212D-01  0.485771D+00
     21  0.346981D-04 -0.344630D-04  0.234780D-02 -0.236251D-03 -0.394445D-02
     22 -0.139210D+00  0.840904D-01  0.272522D-03 -0.888388D-02  0.174332D-02
     23  0.461867D-01 -0.773459D-01  0.136297D-03  0.157219D-02  0.233128D-03
     24  0.113914D-03  0.216358D-03 -0.871168D-01  0.340187D-04 -0.204975D-04
     25 -0.684436D-02 -0.107339D-01 -0.277915D-01 -0.553328D-03  0.350551D-03
     26  0.838432D-02  0.631758D-02  0.174823D-01  0.111751D-02 -0.275273D-03
     27 -0.678182D-02  0.120067D-02  0.676857D-02  0.128206D-03 -0.325923D-03
     28 -0.700303D-02 -0.109643D-01  0.276676D-01 -0.575078D-03  0.366564D-03
     29  0.841743D-02  0.648980D-02 -0.174507D-01  0.114085D-02 -0.290406D-03
     30  0.679712D-02 -0.123722D-02  0.674493D-02 -0.134596D-03  0.334263D-03
               21            22            23            24            25 
     21  0.169220D-02
     22  0.106994D-04  0.585051D+00
     23 -0.144082D-04 -0.565985D-01  0.147127D+00
     24 -0.154253D-03 -0.838648D-03 -0.278866D-02  0.739761D+00
     25 -0.251081D-03 -0.195400D+00 -0.103974D-01 -0.187108D+00  0.186279D+00
     26  0.490398D-03 -0.297508D-01 -0.304482D-01 -0.673210D-01  0.186513D-01
     27  0.446406D-03 -0.157744D+00 -0.331455D-01 -0.332308D+00  0.186495D+00
     28  0.269690D-03 -0.196913D+00 -0.122345D-01  0.187848D+00  0.181958D-01
     29 -0.478667D-03 -0.314799D-01 -0.312685D-01  0.699263D-01  0.334030D-03
     30  0.446582D-03  0.158330D+00  0.358192D-01 -0.330442D+00  0.267738D-01
               26            27            28            29            30 
     26  0.203302D-01
     27  0.423654D-01  0.353433D+00
     28  0.534748D-03 -0.265931D-01  0.187924D+00
     29  0.542796D-02 -0.822088D-02  0.204971D-01  0.210243D-01
     30  0.851188D-02 -0.274747D-01 -0.187296D+00 -0.452950D-01  0.351580D+00
 Leave Link  716 at Wed May 11 21:23:19 2022, MaxMem= 67108864000 cpu:               0.8 elap:               0.0
 (Enter /cm/shared/apps/gaussian/intel/EM64T/SSE4_2-enabled/binary//g16/l103.exe)

 GradGradGradGradGradGradGradGradGradGradGradGradGradGradGradGradGradGrad
 Berny optimization.
 Search for a local minimum.
 Step number   1 out of a maximum of    2
 All quantities printed in internal units (Hartrees-Bohrs-Radians)
 Second derivative matrix not updated -- analytic derivatives used.
 ITU=  0
     Eigenvalues ---   -0.00261  -0.00075   0.00106   0.00131   0.00533
     Eigenvalues ---    0.00934   0.01443   0.02610   0.04184   0.05911
     Eigenvalues ---    0.06219   0.06653   0.11683   0.13637   0.13963
     Eigenvalues ---    0.15662   0.22509   0.34114   0.52124   0.84398
     Eigenvalues ---    0.89413   0.99516   1.00910   1.02574
 Eigenvalue     1 is  -2.61D-03 should be greater than     0.000000 Eigenvector:
                          Y3        Y4        Z7        Z4        X3
   1                    0.62853  -0.62579   0.22301  -0.15118  -0.15108
                          X4        Z3        Y10       Y9        Z5
   1                    0.15059  -0.15034   0.14571  -0.14471   0.09099
 Eigenvalue     2 is  -7.45D-04 should be greater than     0.000000 Eigenvector:
                          Y10       Y9        X10       X9        Z10
   1                    0.54582  -0.54091   0.30818  -0.30526   0.24220
                          Z9        Z7        Z4        Z3        Z5
   1                    0.23583  -0.18709   0.12732   0.12725  -0.10419
 Quadratic step=9.787D-01 exceeds max=3.000D-01 adjusted using Lamda=-5.381D-02.
 Angle between NR and scaled steps=  49.14 degrees.
 Angle between quadratic step and forces=  24.45 degrees.
 Linear search not attempted -- first point.
 B after Tr=    -0.003480   -0.013010    0.000096
         Rot=    1.000000    0.000081    0.000004   -0.000410 Ang=   0.05 deg.
 Variable       Old X    -DE/DX   Delta X   Delta X   Delta X     New X
                                 (Linear)    (Quad)   (Total)
    X1        0.72825   0.00430   0.00000  -0.00858  -0.01206   0.71619
    Y1       -0.07021   0.01141   0.00000   0.06809   0.05567  -0.01455
    Z1       -0.00156  -0.00004   0.00000  -0.00021  -0.00011  -0.00167
    X2        4.38946   0.00753   0.00000   0.05839   0.05391   4.44337
    Y2        1.34589  -0.01831   0.00000  -0.13188  -0.14125   1.20464
    Z2       -0.00187   0.00007   0.00000  -0.00009  -0.00016  -0.00203
    X3        5.44050   0.00254   0.00000   0.05767   0.05325   5.49375
    Y3        1.07232   0.00861   0.00000   0.08514   0.07639   1.14871
    Z3       -1.50673  -0.00754   0.00000  -0.03601  -0.03606  -1.54279
    X4        5.44182   0.00247   0.00000   0.05738   0.05294   5.49476
    Y4        1.07018   0.00862   0.00000   0.08453   0.07628   1.14647
    Z4        1.50199   0.00745   0.00000   0.03598   0.03593   1.53792
    X5       -2.85874  -0.00877   0.00000  -0.02434  -0.02685  -2.88559
    Y5       -1.15948  -0.00324   0.00000  -0.01083  -0.02621  -1.18569
    Z5       -0.00164   0.00014   0.00000   0.00162   0.00188   0.00024
    X6       -5.25897   0.00481   0.00000   0.02809   0.02449  -5.23448
    Y6        0.13143   0.00967   0.00000   0.01896   0.00166   0.13308
    Z6       -0.00043  -0.00003   0.00000  -0.00016  -0.00013  -0.00057
    X7       -2.94598  -0.00717   0.00000  -0.06253  -0.06353  -3.00951
    Y7       -3.00527  -0.00890   0.00000  -0.02175  -0.03722  -3.04249
    Z7        0.01385  -0.00003   0.00000  -0.00166  -0.00110   0.01275
    X8       -6.98874  -0.00526   0.00000  -0.03895  -0.04330  -7.03204
    Y8        1.17607  -0.02730   0.00000  -0.12036  -0.13914   1.03693
    Z8        0.00035  -0.00024   0.00000  -0.00074  -0.00087  -0.00053
    X9       -8.02159  -0.00015   0.00000  -0.01500  -0.01930  -8.04089
    Y9        0.92812   0.00975   0.00000   0.08645   0.06659   0.99472
    Z9       -1.52163  -0.00696   0.00000  -0.04032  -0.04045  -1.56208
   X10       -8.02733  -0.00030   0.00000  -0.01525  -0.01956  -8.04689
   Y10        0.91475   0.00971   0.00000   0.08659   0.06723   0.98198
   Z10        1.51572   0.00718   0.00000   0.04120   0.04107   1.55679
         Item               Value     Threshold  Converged?
 Maximum Force            0.027295     0.000450     NO 
 RMS     Force            0.008584     0.000300     NO 
 Maximum Displacement     0.141245     0.001800     NO 
 RMS     Displacement     0.054065     0.001200     NO 
 Predicted change in Energy=-8.848876D-03
 GradGradGradGradGradGradGradGradGradGradGradGradGradGradGradGradGradGrad

 Leave Link  103 at Wed May 11 21:23:19 2022, MaxMem= 67108864000 cpu:               0.6 elap:               0.0
 (Enter /cm/shared/apps/gaussian/intel/EM64T/SSE4_2-enabled/binary//g16/l9999.exe)

 ----------------------------------------------------------------------

 Electric dipole moment (input orientation):
 (Debye = 10**-18 statcoulomb cm , SI units = C m)
                  (au)            (Debye)         (10**-30 SI)
   Tot        0.200730D+01      0.510204D+01      0.170186D+02
   x         -0.198437D+01     -0.504375D+01     -0.168242D+02
   y         -0.302539D+00     -0.768977D+00     -0.256503D+01
   z          0.282675D-02      0.718489D-02      0.239662D-01

 Dipole polarizability, Alpha (input orientation).
 (esu units = cm**3 , SI units = C**2 m**2 J**-1)
 Alpha(0;0):
               (au)            (10**-24 esu)      (10**-40 SI)
   iso        0.358446D+02      0.531162D+01      0.590997D+01
   aniso      0.258974D+02      0.383760D+01      0.426991D+01
   xx         0.528903D+02      0.783753D+01      0.872043D+01
   yx         0.232832D+01      0.345021D+00      0.383888D+00
   yy         0.268530D+02      0.397920D+01      0.442746D+01
   zx         0.417450D-02      0.618597D-03      0.688282D-03
   zy        -0.252881D-01     -0.374732D-02     -0.416945D-02
   zz         0.277904D+02      0.411812D+01      0.458202D+01

 ----------------------------------------------------------------------

 Dipole orientation:
    80          0.02645291         -0.17720949         -0.70934937
     8         -0.09634927          0.66197370         -4.54216816
     1         -1.51799171          0.01141637         -5.54208303
     1          1.45670612          0.46260955         -5.53882872
     8          0.10201861         -0.70807858          3.00083414
     1         -0.14668486          0.91085130          5.17907817
     1          0.38986243         -2.49667833          3.36529987
     8         -0.34302050          2.18928548          6.73164349
     1         -1.83559912          1.87124545          7.78791993
     1          1.16890109          2.31682080          7.79988960

 Electric dipole moment (dipole orientation):
 (Debye = 10**-18 statcoulomb cm , SI units = C m)
                  (au)            (Debye)         (10**-30 SI)
   Tot        0.200730D+01      0.510204D+01      0.170186D+02
   x          0.000000D+00      0.000000D+00      0.000000D+00
   y          0.000000D+00      0.000000D+00      0.000000D+00
   z          0.200730D+01      0.510204D+01      0.170186D+02

 Dipole polarizability, Alpha (dipole orientation).
 (esu units = cm**3 , SI units = C**2 m**2 J**-1)
 Alpha(0;0):
               (au)            (10**-24 esu)      (10**-40 SI)
   iso        0.358446D+02      0.531162D+01      0.590997D+01
   aniso      0.258974D+02      0.383760D+01      0.426991D+01
   xx         0.277752D+02      0.411586D+01      0.457951D+01
   yx         0.128247D+00      0.190043D-01      0.211451D-01
   yy         0.267659D+02      0.396630D+01      0.441310D+01
   zx        -0.285129D+00     -0.422517D-01     -0.470114D-01
   zy         0.163261D+01      0.241927D+00      0.269180D+00
   zz         0.529926D+02      0.785269D+01      0.873730D+01

 ----------------------------------------------------------------------
 1\1\GINC-CTCP002\Freq\RMP2-Full\SDDAll\H6Hg1O3(2+)\FLOREZ\11-May-2022\
 0\\#p MP2(full) SDDAll freq\\file 'w3s1.log' Now we use Def2-QZVPPD, b
 ut it was opt at: ---' #p ZORA-SR+SO PBE QZ4P'---\\2,1\Hg,0.385373,-0.
 037155,-0.000824\O,2.322803,0.712212,-0.000991\H,2.878987,0.567445,-0.
 797329\H,2.879685,0.566317,0.794818\O,-1.51278,-0.61357,-0.000869\H,-2
 .782926,0.069548,-0.000229\H,-1.558948,-1.590318,0.007329\O,-3.698283,
 0.62235,0.000183\H,-4.244843,0.491141,-0.805211\H,-4.247882,0.484066,0
 .802085\\Version=ES64L-G16RevA.03\State=1-A\HF=-202.6047821\MP2=-203.1
 226669\RMSD=6.204e-09\RMSF=8.584e-03\ZeroPoint=0.0745591\Thermal=0.080
 7494\Dipole=-1.9843655,-0.3025387,0.0028268\DipoleDeriv=1.8285351,0.23
 85758,-0.0002618,0.3227674,1.1530516,0.0001264,-0.0015031,-0.0001265,1
 .0614767,-0.9124099,-0.1717434,-0.0000733,-0.1558719,-0.5995386,0.0000
 026,0.0004308,0.0002098,-0.5213034,0.4022161,0.0102039,-0.0543614,-0.0
 016586,0.4448423,-0.0364426,-0.1787414,-0.0751269,0.4561492,0.4026248,
 0.0102384,0.0544139,-0.0018142,0.4447233,0.0364715,0.1787408,0.0750998
 ,0.4561719,-1.3609855,0.0924199,-0.0003184,0.0280349,-0.6226531,-0.001
 3157,0.0028242,-0.0013494,-0.6863124,1.7437083,-0.3862938,0.0011272,-0
 .7446346,0.5763409,0.0002426,0.0004292,0.0006626,0.3477182,0.1876327,-
 0.0051843,-0.0000439,0.196551,0.3351005,0.0012038,-0.0018228,0.0010174
 ,0.4081387,-1.1773777,0.192368,-0.0003254,0.4249184,-0.7191842,-0.0004
 99,-0.000114,-0.0006048,-0.4765583,0.4426993,0.0095494,0.0495219,-0.03
 441,0.4941604,-0.0695978,0.1126122,-0.0428186,0.4771647,0.4433568,0.00
 98661,-0.0496787,-0.0338823,0.4931569,0.0698082,-0.112856,0.0430366,0.
 4773548\Polar=52.8902819,2.3283165,26.8529709,0.0041745,-0.0252881,27.
 7904391\PG=C01 [X(H6Hg1O3)]\NImag=3\\0.38422031,0.12112523,0.07468279,
 -0.00010232,-0.00016103,0.03189987,-0.13519815,-0.04892315,-0.00000122
 ,0.50675955,-0.03251350,-0.02974308,0.00002657,-0.03067133,0.06943491,
 0.00001787,0.00003899,-0.03414607,-0.00018776,-0.00035292,0.67916323,-
 0.01079546,0.00109544,0.01165364,-0.18955532,0.03063518,0.20296359,0.1
 8327148,-0.00849847,0.00097843,0.00590321,0.03953033,-0.02295877,-0.06
 251147,-0.03051950,0.01578087,0.00041369,-0.00098930,0.00601300,0.1586
 4807,-0.03612409,-0.32675285,-0.18587666,0.04737131,0.35004416,-0.0108
 0175,0.00111718,-0.01163833,-0.18972530,0.03090306,-0.20279968,0.01620
 577,-0.00066031,0.02757914,0.18344432,-0.00849922,0.00098436,-0.005904
 13,0.03975809,-0.02314152,0.06284098,-0.00062937,0.00604019,-0.0100158
 6,-0.03077257,0.01596262,-0.00041461,0.00097845,0.00601436,-0.15846509
 ,0.03646177,-0.32605907,-0.02762052,0.01006687,-0.02879657,0.18573795,
 -0.04775288,0.34934952,-0.20633958,-0.04463744,-0.00011401,0.00641152,
 -0.00116423,0.00003544,0.00172597,0.00047484,-0.00144581,0.00173981,0.
 00047545,0.00143711,0.27750811,-0.07028178,-0.04740115,0.00007086,-0.0
 0016687,0.00647214,-0.00002098,-0.00050445,0.00002838,-0.00014868,-0.0
 0051299,0.00002495,0.00015273,0.06527549,0.55202190,0.00018063,0.00014
 037,-0.01413223,0.00002643,-0.00000958,0.00683638,-0.00095319,-0.00084
 282,-0.00066732,0.00095579,0.00084420,-0.00067541,-0.00029686,-0.00403
 968,0.02886311,-0.01000113,-0.00899720,0.00003877,0.00435476,0.0027013
 6,-0.00000738,-0.00081491,-0.00029266,0.00134487,-0.00081867,-0.000291
 42,-0.00134242,0.00782245,-0.01039843,-0.00005006,0.13737273,-0.001110
 24,0.00935389,-0.00003188,-0.00255501,-0.00190211,0.00000764,0.0003769
 1,0.00016966,-0.00081299,0.00038012,0.00016964,0.00081147,-0.02575674,
 -0.02392941,0.00015741,-0.04002346,0.08283628,-0.00002823,-0.00000682,
 0.00011121,0.00000056,0.00000080,0.00043519,-0.00006167,-0.00009303,0.
 00008031,0.00006074,0.00009246,0.00008019,0.00014775,0.00002142,-0.019
 05667,-0.00014769,-0.00027700,0.08960522,-0.01435508,-0.02704118,0.000
 17406,-0.00132961,0.00143735,-0.00002372,-0.00033476,-0.00016504,-0.00
 010856,-0.00034270,-0.00017097,0.00011389,-0.03876999,-0.01380813,0.00
 017302,0.01514251,0.00629622,-0.00012007,0.05000190,0.00110504,-0.0046
 1350,0.00009004,0.00188280,0.00098820,-0.00000096,-0.00024675,0.000010
 71,0.00035745,-0.00024611,0.00000903,-0.00035665,-0.02888994,-0.479673
 73,0.00377251,-0.00568666,-0.00215946,0.00009421,0.02962119,0.48577130
 ,-0.00007207,-0.00000369,0.00336489,-0.00002154,-0.00000249,0.00077909
 ,-0.00013790,0.00007894,0.00002087,0.00013670,-0.00007792,0.00002876,0
 .00026706,0.00398675,-0.00897234,0.00003470,-0.00003446,0.00234780,-0.
 00023625,-0.00394445,0.00169220,0.00553803,0.00618100,-0.00001254,-0.0
 0241570,-0.00148723,0.00000259,0.00048404,0.00012885,-0.00076645,0.000
 48576,0.00012806,0.00076550,-0.04873542,0.02704475,-0.00002021,-0.1392
 1035,0.08409040,0.00027252,-0.00888388,0.00174332,0.00001070,0.5850506
 0,-0.00224344,-0.00536153,0.00001062,0.00146059,0.00109379,-0.00000262
 ,-0.00023913,-0.00015960,0.00047084,-0.00024059,-0.00015930,-0.0004702
 3,0.03273404,-0.00371122,-0.00001558,0.04618673,-0.07734588,0.00013630
 ,0.00157219,0.00023313,-0.00001441,-0.05659847,0.14712725,0.00000495,0
 .00000598,-0.00027145,0.00000028,-0.00000061,-0.00009745,0.00001237,0.
 00004386,-0.00006873,-0.00001203,-0.00004374,-0.00006858,-0.00005473,-
 0.00001796,0.01076608,0.00011391,0.00021636,-0.08711675,0.00003402,-0.
 00002050,-0.00015425,-0.00083865,-0.00278866,0.73976137,-0.00113293,0.
 00004513,-0.00023885,0.00034832,0.00007881,-0.00000336,-0.00009344,0.0
 0000807,0.00008912,-0.00009338,-0.00000590,-0.00012208,-0.00070555,0.0
 0166929,0.00215680,-0.00684436,-0.01073389,-0.02779152,-0.00055333,0.0
 0035055,-0.00025108,-0.19539984,-0.01039742,-0.18710776,0.18627869,0.0
 0046072,0.00056379,-0.00029299,-0.00015941,-0.00012289,0.00007021,0.00
 000383,0.00005852,-0.00007290,0.00002857,0.00005192,0.00003652,0.00072
 917,-0.00190356,-0.00126977,0.00838432,0.00631758,0.01748233,0.0011175
 1,-0.00027527,0.00049040,-0.02975079,-0.03044819,-0.06732103,0.0186513
 3,0.02033015,-0.00066767,-0.00068907,0.00057634,0.00044744,0.00025900,
 -0.00007989,-0.00006108,-0.00003108,0.00019146,-0.00008173,-0.00001410
 ,-0.00006431,0.00485847,-0.00139851,-0.00148895,-0.00678182,0.00120067
 ,0.00676857,0.00012821,-0.00032592,0.00044641,-0.15774362,-0.03314548,
 -0.33230787,0.18649490,0.04236536,0.35343294,-0.00113426,0.00003499,0.
 00024081,0.00034994,0.00008054,0.00000241,-0.00009337,-0.00000611,0.00
 012260,-0.00009385,0.00000785,-0.00008975,-0.00065732,0.00168312,-0.00
 217234,-0.00700303,-0.01096432,0.02766758,-0.00057508,0.00036656,0.000
 26969,-0.19691325,-0.01223450,0.18784763,0.01819582,0.00053475,-0.0265
 9309,0.18792440,0.00045566,0.00055599,0.00028872,-0.00015605,-0.000120
 66,-0.00006887,0.00002785,0.00005162,-0.00003579,0.00000365,0.00005811
 ,0.00007194,0.00075936,-0.00192830,0.00126293,0.00841743,0.00648980,-0
 .01745068,0.00114085,-0.00029041,-0.00047867,-0.03147989,-0.03126846,0
 .06992630,0.00033403,0.00542796,-0.00822088,0.02049711,0.02102434,0.00
 066775,0.00068610,0.00057008,-0.00044716,-0.00025846,-0.00007855,0.000
 08142,0.00001420,-0.00006434,0.00006146,0.00003097,0.00019110,-0.00483
 443,0.00139405,-0.00147264,0.00679712,-0.00123722,0.00674493,-0.000134
 60,0.00033426,0.00044658,0.15833016,0.03581922,-0.33044236,0.02677383,
 0.00851188,-0.02747469,-0.18729555,-0.04529500,0.35157990\\-0.00430038
 ,-0.01140906,0.00004398,-0.00752598,0.01831274,-0.00007037,-0.00253929
 ,-0.00860627,0.00753924,-0.00247029,-0.00861515,-0.00745251,0.00877280
 ,0.00323820,-0.00014311,-0.00481411,-0.00966563,0.00002779,0.00716966,
 0.00890206,0.00003248,0.00525958,0.02729546,0.00023808,0.00014656,-0.0
 0974558,0.00696327,0.00030145,-0.00970677,-0.00717886\\\@


 THE ONLY EXISTING THINGS ARE ATOMS AND EMPTY SPACE;
 ALL ELSE IS MERE OPINION. -- DEMOCRITUS OF ABDERA D. 370 B.C.
 EXPERIMENTS ARE THE ONLY MEANS OF KNOWLEDGE AT OUR DISPOSAL
 THE REST IS POETRY, IMAGINATION. -- MAX PLANCK
 Job cpu time:       0 days  0 hours 10 minutes 36.8 seconds.
 Elapsed time:       0 days  0 hours  0 minutes 23.6 seconds.
 File lengths (MBytes):  RWF=    585 Int=      0 D2E=      0 Chk=      2 Scr=      1
 Normal termination of Gaussian 16 at Wed May 11 21:23:19 2022.
