 Entering Gaussian System, Link 0=g16
 Initial command:
 /cm/shared/apps/gaussian/intel/EM64T/SSE4_2-enabled/binary//g16/l1.exe "/scratch/florez/25750/Gau-18150.inp" -scrdir="/scratch/florez/25750/"
 Entering Link 1 = /cm/shared/apps/gaussian/intel/EM64T/SSE4_2-enabled/binary//g16/l1.exe PID=     18153.
  
 Copyright (c) 1988,1990,1992,1993,1995,1998,2003,2009,2016,
            Gaussian, Inc.  All Rights Reserved.
  
 This is part of the Gaussian(R) 16 program.  It is based on
 the Gaussian(R) 09 system (copyright 2009, Gaussian, Inc.),
 the Gaussian(R) 03 system (copyright 2003, Gaussian, Inc.),
 the Gaussian(R) 98 system (copyright 1998, Gaussian, Inc.),
 the Gaussian(R) 94 system (copyright 1995, Gaussian, Inc.),
 the Gaussian 92(TM) system (copyright 1992, Gaussian, Inc.),
 the Gaussian 90(TM) system (copyright 1990, Gaussian, Inc.),
 the Gaussian 88(TM) system (copyright 1988, Gaussian, Inc.),
 the Gaussian 86(TM) system (copyright 1986, Carnegie Mellon
 University), and the Gaussian 82(TM) system (copyright 1983,
 Carnegie Mellon University). Gaussian is a federally registered
 trademark of Gaussian, Inc.
  
 This software contains proprietary and confidential information,
 including trade secrets, belonging to Gaussian, Inc.
  
 This software is provided under written license and may be
 used, copied, transmitted, or stored only in accord with that
 written license.
  
 The following legend is applicable only to US Government
 contracts under FAR:
  
                    RESTRICTED RIGHTS LEGEND
  
 Use, reproduction and disclosure by the US Government is
 subject to restrictions as set forth in subparagraphs (a)
 and (c) of the Commercial Computer Software - Restricted
 Rights clause in FAR 52.227-19.
  
 Gaussian, Inc.
 340 Quinnipiac St., Bldg. 40, Wallingford CT 06492
  
  
 ---------------------------------------------------------------
 Warning -- This program may not be used in any manner that
 competes with the business of Gaussian, Inc. or will provide
 assistance to any competitor of Gaussian, Inc.  The licensee
 of this program is prohibited from giving any competitor of
 Gaussian, Inc. access to this program.  By using this program,
 the user acknowledges that Gaussian, Inc. is engaged in the
 business of creating and licensing software in the field of
 computational chemistry and represents and warrants to the
 licensee that it is not a competitor of Gaussian, Inc. and that
 it will not use this program in any manner prohibited above.
 ---------------------------------------------------------------
  

 Cite this work as:
 Gaussian 16, Revision A.03,
 M. J. Frisch, G. W. Trucks, H. B. Schlegel, G. E. Scuseria, 
 M. A. Robb, J. R. Cheeseman, G. Scalmani, V. Barone, 
 G. A. Petersson, H. Nakatsuji, X. Li, M. Caricato, A. V. Marenich, 
 J. Bloino, B. G. Janesko, R. Gomperts, B. Mennucci, H. P. Hratchian, 
 J. V. Ortiz, A. F. Izmaylov, J. L. Sonnenberg, D. Williams-Young, 
 F. Ding, F. Lipparini, F. Egidi, J. Goings, B. Peng, A. Petrone, 
 T. Henderson, D. Ranasinghe, V. G. Zakrzewski, J. Gao, N. Rega, 
 G. Zheng, W. Liang, M. Hada, M. Ehara, K. Toyota, R. Fukuda, 
 J. Hasegawa, M. Ishida, T. Nakajima, Y. Honda, O. Kitao, H. Nakai, 
 T. Vreven, K. Throssell, J. A. Montgomery, Jr., J. E. Peralta, 
 F. Ogliaro, M. J. Bearpark, J. J. Heyd, E. N. Brothers, K. N. Kudin, 
 V. N. Staroverov, T. A. Keith, R. Kobayashi, J. Normand, 
 K. Raghavachari, A. P. Rendell, J. C. Burant, S. S. Iyengar, 
 J. Tomasi, M. Cossi, J. M. Millam, M. Klene, C. Adamo, R. Cammi, 
 J. W. Ochterski, R. L. Martin, K. Morokuma, O. Farkas, 
 J. B. Foresman, and D. J. Fox, Gaussian, Inc., Wallingford CT, 2016.
 
 ******************************************
 Gaussian 16:  ES64L-G16RevA.03 25-Dec-2016
                11-May-2022 
 ******************************************
 %chk=w3s2.chk
 %nproc=28
 Will use up to   28 processors via shared memory.
 %mem=500gb
 ------------------------
 #p MP2(full) SDDAll freq
 ------------------------
 1/10=4,30=1,38=1/1,3;
 2/12=2,17=6,18=5,40=1/2;
 3/5=17,6=6,11=9,25=1,30=1,71=2,140=1/1,2,3;
 4//1;
 5/5=2,38=5,98=1/2;
 8/6=3,8=1,10=90,19=11/1;
 9/15=3,16=-3/6;
 11/6=1,8=1,15=11,17=11,24=-1,27=1,28=-2,29=300,32=6,42=3/1,2,10;
 10/6=2,21=1/2;
 8/6=4,8=1,10=90,19=11/11,4;
 10/5=1,20=4/2;
 11/12=2,14=11,16=1,28=-2,42=3/2,10,12;
 6/7=2,8=2,9=2,10=2/1;
 7/8=1,10=1,12=2,25=1,44=2/1,2,3,16;
 1/10=4,30=1/3;
 99//99;
 Leave Link    1 at Wed May 11 21:23:19 2022, MaxMem= 67108864000 cpu:               1.4 elap:               0.1
 (Enter /cm/shared/apps/gaussian/intel/EM64T/SSE4_2-enabled/binary//g16/l101.exe)
 ----------------------------------------------------------------------
 file 'w3s2.log' Now we use Def2-QZVPPD, but it was opt at: ---' #p ZOR
 A-SR+SO PBE QZ4P'---
 ----------------------------------------------------------------------
 Symbolic Z-matrix:
 Charge =  2 Multiplicity = 1
 Hg(Fragment=1)        0.11481   0.01217   0.01045 
 O(Fragment=2)        -1.8094   -0.94574   0.20343 
 H(Fragment=2)        -1.89836  -1.90679   0.02541 
 H(Fragment=2)        -2.56265  -0.48662  -0.22644 
 O(Fragment=2)         2.23554   0.11885  -0.15862 
 H(Fragment=2)         2.73301  -0.72721  -0.2048 
 H(Fragment=2)         2.72012   0.71509   0.4534 
 O(Fragment=2)        -1.19395   1.94934  -0.0742 
 H(Fragment=2)        -1.04226   2.61016  -0.78049 
 H(Fragment=2)        -1.35939   2.46176   0.74293 
 
 ITRead=  0  0  0  0  0  0  0  0  0  0
 MicOpt= -1 -1 -1 -1 -1 -1 -1 -1 -1 -1
 NAtoms=     10 NQM=       10 NQMF=       0 NMMI=      0 NMMIF=      0
                NMic=       0 NMicF=      0.
                    Isotopes and Nuclear Properties:
 (Nuclear quadrupole moments (NQMom) in fm**2, nuclear magnetic moments (NMagM)
  in nuclear magnetons)

  Atom         1           2           3           4           5           6           7           8           9          10
 IAtWgt=         202          16           1           1          16           1           1          16           1           1
 AtmWgt= 201.9706000  15.9949146   1.0078250   1.0078250  15.9949146   1.0078250   1.0078250  15.9949146   1.0078250   1.0078250
 NucSpn=           0           0           1           1           0           1           1           0           1           1
 AtZEff=  -0.0000000  -0.0000000  -0.0000000  -0.0000000  -0.0000000  -0.0000000  -0.0000000  -0.0000000  -0.0000000  -0.0000000
 NQMom=    0.0000000   0.0000000   0.0000000   0.0000000   0.0000000   0.0000000   0.0000000   0.0000000   0.0000000   0.0000000
 NMagM=    0.0000000   0.0000000   2.7928460   2.7928460   0.0000000   2.7928460   2.7928460   0.0000000   2.7928460   2.7928460
 AtZNuc=  80.0000000   8.0000000   1.0000000   1.0000000   8.0000000   1.0000000   1.0000000   8.0000000   1.0000000   1.0000000
 Leave Link  101 at Wed May 11 21:23:19 2022, MaxMem= 67108864000 cpu:               3.0 elap:               0.1
 (Enter /cm/shared/apps/gaussian/intel/EM64T/SSE4_2-enabled/binary//g16/l103.exe)

 GradGradGradGradGradGradGradGradGradGradGradGradGradGradGradGradGradGrad
 Berny optimization.
 Initialization pass.
 Trust Radius=3.00D-01 FncErr=1.00D-07 GrdErr=1.00D-07 EigMax=2.50D+02 EigMin=1.00D-04
 Number of steps in this run=      2 maximum allowed number of steps=      2.
 GradGradGradGradGradGradGradGradGradGradGradGradGradGradGradGradGradGrad

 Leave Link  103 at Wed May 11 21:23:20 2022, MaxMem= 67108864000 cpu:               1.5 elap:               0.1
 (Enter /cm/shared/apps/gaussian/intel/EM64T/SSE4_2-enabled/binary//g16/l202.exe)
                          Input orientation:                          
 ---------------------------------------------------------------------
 Center     Atomic      Atomic             Coordinates (Angstroms)
 Number     Number       Type             X           Y           Z
 ---------------------------------------------------------------------
      1         80           0        0.114812    0.012173    0.010454
      2          8           0       -1.809402   -0.945735    0.203429
      3          1           0       -1.898355   -1.906787    0.025408
      4          1           0       -2.562646   -0.486620   -0.226442
      5          8           0        2.235542    0.118853   -0.158615
      6          1           0        2.733014   -0.727211   -0.204796
      7          1           0        2.720116    0.715092    0.453398
      8          8           0       -1.193950    1.949344   -0.074199
      9          1           0       -1.042264    2.610164   -0.780487
     10          1           0       -1.359389    2.461764    0.742925
 ---------------------------------------------------------------------
                    Distance matrix (angstroms):
                    1          2          3          4          5
     1  Hg   0.000000
     2  O    2.158107   0.000000
     3  H    2.781272   0.981440   0.000000
     4  H    2.733806   0.981301   1.587950   0.000000
     5  O    2.130132   4.198332   4.607189   4.836714   0.000000
     6  H    2.729103   4.565955   4.784765   5.301167   0.982566
     7  H    2.734576   4.830876   5.328011   5.460208   0.982279
     8  O    2.339371   2.972767   3.921206   2.798290   3.888347
     9  H    2.951943   3.768423   4.667462   3.494080   4.163816
    10  H    2.951318   3.479169   4.459770   3.328734   4.384693
                    6          7          8          9         10
     6  H    0.000000
     7  H    1.585441   0.000000
     8  O    4.754161   4.137831   0.000000
     9  H    5.071707   4.389678   0.979048   0.000000
    10  H    5.274040   4.447140   0.978589   1.563130   0.000000
 Stoichiometry    H6HgO3(2+)
 Framework group  C1[X(H6HgO3)]
 Deg. of freedom    24
 Full point group                 C1      NOp   1
 Largest Abelian subgroup         C1      NOp   1
 Largest concise Abelian subgroup C1      NOp   1
                         Standard orientation:                         
 ---------------------------------------------------------------------
 Center     Atomic      Atomic             Coordinates (Angstroms)
 Number     Number       Type             X           Y           Z
 ---------------------------------------------------------------------
      1         80           0        0.107206   -0.095023    0.003502
      2          8           0       -1.744624   -1.201302    0.069061
      3          1           0       -1.754099   -2.154990   -0.162489
      4          1           0       -2.514563   -0.775891   -0.365878
      5          8           0        2.218464    0.176805   -0.074970
      6          1           0        2.779914   -0.626457   -0.145536
      7          1           0        2.634224    0.772405    0.586300
      8          8           0       -1.340613    1.742160   -0.031680
      9          1           0       -1.214161    2.450367   -0.695749
     10          1           0       -1.573592    2.195071    0.803920
 ---------------------------------------------------------------------
 Rotational constants (GHZ):           5.4432897           2.6825066           1.8204681
 Leave Link  202 at Wed May 11 21:23:20 2022, MaxMem= 67108864000 cpu:               0.2 elap:               0.0
 (Enter /cm/shared/apps/gaussian/intel/EM64T/SSE4_2-enabled/binary//g16/l301.exe)
 Standard basis: SDDAll (6D, 10F)
 Ernie: Thresh=  0.10000D-02 Tol=  0.10000D-05 Strict=F.
 There are    84 symmetry adapted cartesian basis functions of A   symmetry.
 There are    84 symmetry adapted basis functions of A   symmetry.
    84 basis functions,   146 primitive gaussians,    84 cartesian basis functions
    21 alpha electrons       21 beta electrons
       nuclear repulsion energy       155.9619939952 Hartrees.
 IExCor=    0 DFT=F Ex=HF Corr=None ExCW=0 ScaHFX=  1.000000
 ScaDFX=  1.000000  1.000000  1.000000  1.000000 ScalE2=  1.000000  1.000000
 IRadAn=      5 IRanWt=     -1 IRanGd=            0 ICorTp=0 IEmpDi=  4
 NAtoms=   10 NActive=   10 NUniq=   10 SFac= 1.00D+00 NAtFMM=   60 NAOKFM=F Big=F
 Integral buffers will be    131072 words long.
 Raffenetti 1 integral format.
 Two-electron integral symmetry is turned on.
 Leave Link  301 at Wed May 11 21:23:20 2022, MaxMem= 67108864000 cpu:               2.2 elap:               0.1
 (Enter /cm/shared/apps/gaussian/intel/EM64T/SSE4_2-enabled/binary//g16/l302.exe)
 NPDir=0 NMtPBC=     1 NCelOv=     1 NCel=       1 NClECP=     1 NCelD=      1
         NCelK=      1 NCelE2=     1 NClLst=     1 CellRange=     0.0.
 One-electron integrals computed using PRISM.
 One-electron integral symmetry used in STVInt
   1 Symmetry operations used in ECPInt.
 ECPInt:  NShTT=     861 NPrTT=    2675 LenC2=     862 LenP2D=    2342.
 LDataN:  DoStor=T MaxTD1= 7 Len=  274
 NBasis=    84 RedAO= T EigKep=  3.91D-04  NBF=    84
 NBsUse=    84 1.00D-06 EigRej= -1.00D+00 NBFU=    84
 Leave Link  302 at Wed May 11 21:23:20 2022, MaxMem= 67108864000 cpu:               5.4 elap:               0.2
 (Enter /cm/shared/apps/gaussian/intel/EM64T/SSE4_2-enabled/binary//g16/l303.exe)
 DipDrv:  MaxL=1.
 Leave Link  303 at Wed May 11 21:23:20 2022, MaxMem= 67108864000 cpu:               2.0 elap:               0.1
 (Enter /cm/shared/apps/gaussian/intel/EM64T/SSE4_2-enabled/binary//g16/l401.exe)
 ExpMin= 2.00D-02 ExpMax= 4.71D+01 ExpMxC= 4.71D+01 IAcc=3 IRadAn=         5 AccDes= 0.00D+00
 Harris functional with IExCor=  205 and IRadAn=       5 diagonalized for initial guess.
 HarFok:  IExCor=  205 AccDes= 0.00D+00 IRadAn=         5 IDoV= 1 UseB2=F ITyADJ=14
 ICtDFT=  3500011 ScaDFX=  1.000000  1.000000  1.000000  1.000000
 Defaulting to unpruned grid for atomic number  80.
 FoFCou: FMM=F IPFlag=           0 FMFlag=      100000 FMFlg1=           0
         NFxFlg=           0 DoJE=T BraDBF=F KetDBF=T FulRan=T
         wScrn=  0.000000 ICntrl=       500 IOpCl=  0 I1Cent=   200000004 NGrid=           0
         NMat0=    1 NMatS0=      1 NMatT0=    0 NMatD0=    1 NMtDS0=    0 NMtDT0=    0
 Petite list used in FoFCou.
 Harris En= -205.137004339774    
 JPrj=0 DoOrth=F DoCkMO=F.
 Leave Link  401 at Wed May 11 21:23:20 2022, MaxMem= 67108864000 cpu:               5.5 elap:               0.2
 (Enter /cm/shared/apps/gaussian/intel/EM64T/SSE4_2-enabled/binary//g16/l502.exe)
 Keep R1 ints in memory in canonical form, NReq=12225753.
 FoFCou: FMM=F IPFlag=           0 FMFlag=           0 FMFlg1=           0
         NFxFlg=           0 DoJE=F BraDBF=F KetDBF=F FulRan=T
         wScrn=  0.000000 ICntrl=       600 IOpCl=  0 I1Cent=           0 NGrid=           0
         NMat0=    1 NMatS0=   3570 NMatT0=    0 NMatD0=    1 NMtDS0=    0 NMtDT0=    0
 Symmetry not used in FoFCou.
 Two-electron integral symmetry not used.
 Closed shell SCF:
 Using DIIS extrapolation, IDIIS=  1040.
 NGot= 67108864000 LenX= 67102472210 LenY= 67102464713
 Requested convergence on RMS density matrix=1.00D-08 within 128 cycles.
 Requested convergence on MAX density matrix=1.00D-06.
 Requested convergence on             energy=1.00D-06.
 No special actions if energy rises.

 Cycle   1  Pass 1  IDiag  1:
 E= -202.251895743021    
 DIIS: error= 5.55D-02 at cycle   1 NSaved=   1.
 NSaved= 1 IEnMin= 1 EnMin= -202.251895743021     IErMin= 1 ErrMin= 5.55D-02
 ErrMax= 5.55D-02  0.00D+00 EMaxC= 1.00D-01 BMatC= 4.29D-01 BMatP= 4.29D-01
 IDIUse=3 WtCom= 4.45D-01 WtEn= 5.55D-01
 Coeff-Com:  0.100D+01
 Coeff-En:   0.100D+01
 Coeff:      0.100D+01
 Gap=     0.707 Goal=   None    Shift=    0.000
 GapD=    0.707 DampG=2.000 DampE=0.250 DampFc=0.5000 IDamp=-1.
 Damping current iteration by 5.00D-01
 RMSDP=1.07D-02 MaxDP=2.26D-01              OVMax= 2.01D-01

 Cycle   2  Pass 1  IDiag  1:
 E= -202.442868129989     Delta-E=       -0.190972386968 Rises=F Damp=T
 DIIS: error= 1.52D-02 at cycle   2 NSaved=   2.
 NSaved= 2 IEnMin= 2 EnMin= -202.442868129989     IErMin= 2 ErrMin= 1.52D-02
 ErrMax= 1.52D-02  0.00D+00 EMaxC= 1.00D-01 BMatC= 3.13D-02 BMatP= 4.29D-01
 IDIUse=3 WtCom= 8.48D-01 WtEn= 1.52D-01
 Coeff-Com: -0.255D+00 0.126D+01
 Coeff-En:   0.000D+00 0.100D+01
 Coeff:     -0.217D+00 0.122D+01
 Gap=     0.540 Goal=   None    Shift=    0.000
 RMSDP=3.65D-03 MaxDP=6.89D-02 DE=-1.91D-01 OVMax= 5.76D-02

 Cycle   3  Pass 1  IDiag  1:
 E= -202.605995337879     Delta-E=       -0.163127207890 Rises=F Damp=F
 DIIS: error= 3.46D-03 at cycle   3 NSaved=   3.
 NSaved= 3 IEnMin= 3 EnMin= -202.605995337879     IErMin= 3 ErrMin= 3.46D-03
 ErrMax= 3.46D-03  0.00D+00 EMaxC= 1.00D-01 BMatC= 2.91D-03 BMatP= 3.13D-02
 IDIUse=3 WtCom= 9.65D-01 WtEn= 3.46D-02
 Coeff-Com:  0.691D-01-0.192D+00 0.112D+01
 Coeff-En:   0.000D+00 0.000D+00 0.100D+01
 Coeff:      0.667D-01-0.185D+00 0.112D+01
 Gap=     0.535 Goal=   None    Shift=    0.000
 RMSDP=1.35D-03 MaxDP=2.73D-02 DE=-1.63D-01 OVMax= 2.35D-02

 Cycle   4  Pass 1  IDiag  1:
 E= -202.609380109102     Delta-E=       -0.003384771223 Rises=F Damp=F
 DIIS: error= 2.98D-03 at cycle   4 NSaved=   4.
 NSaved= 4 IEnMin= 4 EnMin= -202.609380109102     IErMin= 4 ErrMin= 2.98D-03
 ErrMax= 2.98D-03  0.00D+00 EMaxC= 1.00D-01 BMatC= 4.25D-04 BMatP= 2.91D-03
 IDIUse=3 WtCom= 9.70D-01 WtEn= 2.98D-02
 Coeff-Com:  0.401D-01-0.151D+00 0.321D+00 0.790D+00
 Coeff-En:   0.000D+00 0.000D+00 0.000D+00 0.100D+01
 Coeff:      0.389D-01-0.146D+00 0.311D+00 0.796D+00
 Gap=     0.540 Goal=   None    Shift=    0.000
 RMSDP=4.38D-04 MaxDP=7.34D-03 DE=-3.38D-03 OVMax= 1.07D-02

 Cycle   5  Pass 1  IDiag  1:
 E= -202.610064870889     Delta-E=       -0.000684761787 Rises=F Damp=F
 DIIS: error= 9.82D-04 at cycle   5 NSaved=   5.
 NSaved= 5 IEnMin= 5 EnMin= -202.610064870889     IErMin= 5 ErrMin= 9.82D-04
 ErrMax= 9.82D-04  0.00D+00 EMaxC= 1.00D-01 BMatC= 3.60D-05 BMatP= 4.25D-04
 IDIUse=3 WtCom= 9.90D-01 WtEn= 9.82D-03
 Coeff-Com: -0.290D-01 0.891D-01-0.223D+00-0.348D+00 0.151D+01
 Coeff-En:   0.000D+00 0.000D+00 0.000D+00 0.000D+00 0.100D+01
 Coeff:     -0.287D-01 0.882D-01-0.221D+00-0.344D+00 0.151D+01
 Gap=     0.538 Goal=   None    Shift=    0.000
 RMSDP=3.23D-04 MaxDP=5.48D-03 DE=-6.85D-04 OVMax= 6.86D-03

 Cycle   6  Pass 1  IDiag  1:
 E= -202.610214249150     Delta-E=       -0.000149378261 Rises=F Damp=F
 DIIS: error= 1.69D-04 at cycle   6 NSaved=   6.
 NSaved= 6 IEnMin= 6 EnMin= -202.610214249150     IErMin= 6 ErrMin= 1.69D-04
 ErrMax= 1.69D-04  0.00D+00 EMaxC= 1.00D-01 BMatC= 2.91D-06 BMatP= 3.60D-05
 IDIUse=3 WtCom= 9.98D-01 WtEn= 1.69D-03
 Coeff-Com:  0.790D-02-0.182D-01 0.289D-01 0.656D-01-0.456D+00 0.137D+01
 Coeff-En:   0.000D+00 0.000D+00 0.000D+00 0.000D+00 0.000D+00 0.100D+01
 Coeff:      0.788D-02-0.182D-01 0.289D-01 0.655D-01-0.455D+00 0.137D+01
 Gap=     0.539 Goal=   None    Shift=    0.000
 RMSDP=8.93D-05 MaxDP=1.74D-03 DE=-1.49D-04 OVMax= 1.47D-03

 Cycle   7  Pass 1  IDiag  1:
 E= -202.610222194696     Delta-E=       -0.000007945546 Rises=F Damp=F
 DIIS: error= 2.29D-05 at cycle   7 NSaved=   7.
 NSaved= 7 IEnMin= 7 EnMin= -202.610222194696     IErMin= 7 ErrMin= 2.29D-05
 ErrMax= 2.29D-05  0.00D+00 EMaxC= 1.00D-01 BMatC= 8.98D-08 BMatP= 2.91D-06
 IDIUse=1 WtCom= 1.00D+00 WtEn= 0.00D+00
 Coeff-Com:  0.690D-03-0.220D-02 0.858D-02 0.686D-02-0.353D-01-0.203D-01
 Coeff-Com:  0.104D+01
 Coeff:      0.690D-03-0.220D-02 0.858D-02 0.686D-02-0.353D-01-0.203D-01
 Coeff:      0.104D+01
 Gap=     0.539 Goal=   None    Shift=    0.000
 RMSDP=7.73D-06 MaxDP=1.89D-04 DE=-7.95D-06 OVMax= 1.31D-04

 Cycle   8  Pass 1  IDiag  1:
 E= -202.610222354932     Delta-E=       -0.000000160236 Rises=F Damp=F
 DIIS: error= 9.41D-06 at cycle   8 NSaved=   8.
 NSaved= 8 IEnMin= 8 EnMin= -202.610222354932     IErMin= 8 ErrMin= 9.41D-06
 ErrMax= 9.41D-06  0.00D+00 EMaxC= 1.00D-01 BMatC= 1.42D-08 BMatP= 8.98D-08
 IDIUse=1 WtCom= 1.00D+00 WtEn= 0.00D+00
 Coeff-Com: -0.791D-03 0.162D-02-0.869D-03-0.623D-02 0.484D-01-0.180D+00
 Coeff-Com:  0.264D+00 0.874D+00
 Coeff:     -0.791D-03 0.162D-02-0.869D-03-0.623D-02 0.484D-01-0.180D+00
 Coeff:      0.264D+00 0.874D+00
 Gap=     0.539 Goal=   None    Shift=    0.000
 RMSDP=2.79D-06 MaxDP=5.05D-05 DE=-1.60D-07 OVMax= 7.76D-05

 Cycle   9  Pass 1  IDiag  1:
 E= -202.610222379588     Delta-E=       -0.000000024656 Rises=F Damp=F
 DIIS: error= 2.61D-06 at cycle   9 NSaved=   9.
 NSaved= 9 IEnMin= 9 EnMin= -202.610222379588     IErMin= 9 ErrMin= 2.61D-06
 ErrMax= 2.61D-06  0.00D+00 EMaxC= 1.00D-01 BMatC= 1.20D-09 BMatP= 1.42D-08
 IDIUse=1 WtCom= 1.00D+00 WtEn= 0.00D+00
 Coeff-Com:  0.175D-03-0.332D-03-0.621D-03 0.143D-02-0.106D-01 0.451D-01
 Coeff-Com: -0.167D+00-0.157D+00 0.129D+01
 Coeff:      0.175D-03-0.332D-03-0.621D-03 0.143D-02-0.106D-01 0.451D-01
 Coeff:     -0.167D+00-0.157D+00 0.129D+01
 Gap=     0.539 Goal=   None    Shift=    0.000
 RMSDP=1.47D-06 MaxDP=2.55D-05 DE=-2.47D-08 OVMax= 3.97D-05

 Cycle  10  Pass 1  IDiag  1:
 E= -202.610222382942     Delta-E=       -0.000000003355 Rises=F Damp=F
 DIIS: error= 5.95D-07 at cycle  10 NSaved=  10.
 NSaved=10 IEnMin=10 EnMin= -202.610222382942     IErMin=10 ErrMin= 5.95D-07
 ErrMax= 5.95D-07  0.00D+00 EMaxC= 1.00D-01 BMatC= 4.78D-11 BMatP= 1.20D-09
 IDIUse=1 WtCom= 1.00D+00 WtEn= 0.00D+00
 Coeff-Com: -0.169D-04 0.348D-04 0.234D-03-0.206D-03 0.954D-03-0.349D-02
 Coeff-Com:  0.309D-01 0.533D-03-0.357D+00 0.133D+01
 Coeff:     -0.169D-04 0.348D-04 0.234D-03-0.206D-03 0.954D-03-0.349D-02
 Coeff:      0.309D-01 0.533D-03-0.357D+00 0.133D+01
 Gap=     0.539 Goal=   None    Shift=    0.000
 RMSDP=2.87D-07 MaxDP=6.66D-06 DE=-3.35D-09 OVMax= 6.14D-06

 Cycle  11  Pass 1  IDiag  1:
 E= -202.610222383086     Delta-E=       -0.000000000144 Rises=F Damp=F
 DIIS: error= 1.15D-07 at cycle  11 NSaved=  11.
 NSaved=11 IEnMin=11 EnMin= -202.610222383086     IErMin=11 ErrMin= 1.15D-07
 ErrMax= 1.15D-07  0.00D+00 EMaxC= 1.00D-01 BMatC= 1.79D-12 BMatP= 4.78D-11
 IDIUse=1 WtCom= 1.00D+00 WtEn= 0.00D+00
 Coeff-Com:  0.173D-05-0.503D-05-0.701D-04 0.417D-04-0.862D-04-0.444D-04
 Coeff-Com: -0.610D-02 0.702D-02 0.890D-01-0.533D+00 0.144D+01
 Coeff:      0.173D-05-0.503D-05-0.701D-04 0.417D-04-0.862D-04-0.444D-04
 Coeff:     -0.610D-02 0.702D-02 0.890D-01-0.533D+00 0.144D+01
 Gap=     0.539 Goal=   None    Shift=    0.000
 RMSDP=6.44D-08 MaxDP=1.37D-06 DE=-1.44D-10 OVMax= 1.47D-06

 Cycle  12  Pass 1  IDiag  1:
 E= -202.610222383090     Delta-E=       -0.000000000004 Rises=F Damp=F
 DIIS: error= 2.04D-08 at cycle  12 NSaved=  12.
 NSaved=12 IEnMin=12 EnMin= -202.610222383090     IErMin=12 ErrMin= 2.04D-08
 ErrMax= 2.04D-08  0.00D+00 EMaxC= 1.00D-01 BMatC= 6.98D-14 BMatP= 1.79D-12
 IDIUse=1 WtCom= 1.00D+00 WtEn= 0.00D+00
 Coeff-Com:  0.381D-06-0.553D-06 0.269D-05 0.203D-05-0.266D-04 0.170D-03
 Coeff-Com: -0.352D-03-0.135D-02 0.305D-03 0.352D-01-0.234D+00 0.120D+01
 Coeff:      0.381D-06-0.553D-06 0.269D-05 0.203D-05-0.266D-04 0.170D-03
 Coeff:     -0.352D-03-0.135D-02 0.305D-03 0.352D-01-0.234D+00 0.120D+01
 Gap=     0.539 Goal=   None    Shift=    0.000
 RMSDP=1.12D-08 MaxDP=2.04D-07 DE=-4.32D-12 OVMax= 2.16D-07

 Cycle  13  Pass 1  IDiag  1:
 E= -202.610222383091     Delta-E=       -0.000000000001 Rises=F Damp=F
 DIIS: error= 7.47D-09 at cycle  13 NSaved=  13.
 NSaved=13 IEnMin=13 EnMin= -202.610222383091     IErMin=13 ErrMin= 7.47D-09
 ErrMax= 7.47D-09  0.00D+00 EMaxC= 1.00D-01 BMatC= 1.41D-14 BMatP= 6.98D-14
 IDIUse=1 WtCom= 1.00D+00 WtEn= 0.00D+00
 Coeff-Com: -0.145D-07 0.252D-06 0.749D-05-0.298D-05-0.143D-05 0.642D-04
 Coeff-Com:  0.448D-03-0.111D-02-0.823D-02 0.613D-01-0.214D+00 0.376D+00
 Coeff-Com:  0.786D+00
 Coeff:     -0.145D-07 0.252D-06 0.749D-05-0.298D-05-0.143D-05 0.642D-04
 Coeff:      0.448D-03-0.111D-02-0.823D-02 0.613D-01-0.214D+00 0.376D+00
 Coeff:      0.786D+00
 Gap=     0.539 Goal=   None    Shift=    0.000
 RMSDP=2.64D-09 MaxDP=4.93D-08 DE=-5.68D-13 OVMax= 5.80D-08

 SCF Done:  E(RHF) =  -202.610222383     A.U. after   13 cycles
            NFock= 13  Conv=0.26D-08     -V/T= 3.2136
 KE= 9.153010598136D+01 PE=-7.369032081271D+02 EE= 2.868008857674D+02
 Leave Link  502 at Wed May 11 21:23:21 2022, MaxMem= 67108864000 cpu:               8.6 elap:               0.4
 (Enter /cm/shared/apps/gaussian/intel/EM64T/SSE4_2-enabled/binary//g16/l801.exe)
 Range of M.O.s used for correlation:     1    84
 NBasis=    84 NAE=    21 NBE=    21 NFC=     0 NFV=     0
 NROrb=     84 NOA=    21 NOB=    21 NVA=    63 NVB=    63

 **** Warning!!: The largest alpha MO coefficient is  0.28639186D+02

 Leave Link  801 at Wed May 11 21:23:21 2022, MaxMem= 67108864000 cpu:               1.0 elap:               0.1
 (Enter /cm/shared/apps/gaussian/intel/EM64T/SSE4_2-enabled/binary//g16/l906.exe)
 FulOut=F Deriv=T AODrv=T NAtomX=    10
   MMem=           0  MDisk=          21 MDiskD=          21
  W3Min=      148176 MinDsk=      471638 NBas6D=          84
 NBas2D=        3657    NTT=        3570    LW2=     3308096
    MDV= 67108761860 MDiskM=    11095694 NBas2p=        3657
 Disk-based method using ON**2 memory for 21 occupieds at a time.
 Permanent disk used for amplitudes=     2160459 words.
 Estimated scratch disk usage=    24497684 words.
 IMap=   1   2   3   4   5   6   7   8   9  10  11  12  13  14  15  16  17  18  19  20
 IMap=  21
 Actual    scratch disk usage=    23009812 words.
 JobTyp=1 Pass  1:  I=   1 to  21 NPSUse= 28 ParTrn=T ParDer=T DoDerP=T.
 (rs|ai) integrals will be sorted in core.
 Spin components of T(2) and E(2):
     alpha-alpha T2 =       0.1974216795D-01 E2=     -0.6507281702D-01
     alpha-beta  T2 =       0.1141609965D+00 E2=     -0.3775552920D+00
     beta-beta   T2 =       0.1974216795D-01 E2=     -0.6507281702D-01
 The integrals were generated   1 times.
 ANorm=    0.1074078830D+01
 E2 =    -0.5077009260D+00 EUMP2 =    -0.20311792330910D+03
 Leave Link  906 at Wed May 11 21:23:24 2022, MaxMem= 67108864000 cpu:              81.0 elap:               2.9
 (Enter /cm/shared/apps/gaussian/intel/EM64T/SSE4_2-enabled/binary//g16/l1101.exe)
 Using compressed Sx but separate Hx and Fx, NAtomX=    10.
 Will process     11 centers per pass.
   1 Symmetry operations used in ECPInt.
 ECPInt:  NShTT=     861 NPrTT=    2675 LenC2=     862 LenP2D=    2342.
 LDataN:  DoStor=T MaxTD1= 8 Len=  415
 Leave Link 1101 at Wed May 11 21:23:24 2022, MaxMem= 67108864000 cpu:              10.8 elap:               0.4
 (Enter /cm/shared/apps/gaussian/intel/EM64T/SSE4_2-enabled/binary//g16/l1102.exe)
 Leave Link 1102 at Wed May 11 21:23:24 2022, MaxMem= 67108864000 cpu:               1.0 elap:               0.1
 (Enter /cm/shared/apps/gaussian/intel/EM64T/SSE4_2-enabled/binary//g16/l1110.exe)
 Forming Gx(P) for the SCF density, NAtomX=    10.
 Integral derivatives from FoFJK, PRISM(SPDF).
 Do as many integral derivatives as possible in FoFJK.
 G2DrvN: MDV=   67108863164.
 G2DrvN: will do    11 centers at a time, making    1 passes.
 Calling FoFCou, ICntrl=  3107 FMM=F I1Cent=   0 AccDes= 0.00D+00.
 FoFJK:  IHMeth= 1 ICntrl=    3107 DoSepK=F KAlg= 0 I1Cent=           0 FoldK=F
 IRaf=         0 NMat=       1 IRICut=       1 DoRegI=T DoRafI=F ISym2E= 0 IDoP0=0 IntGTp=1.
 FoFCou: FMM=F IPFlag=           0 FMFlag=      100000 FMFlg1=           0
         NFxFlg=           0 DoJE=F BraDBF=F KetDBF=F FulRan=T
         wScrn=  0.000000 ICntrl=      3107 IOpCl=  0 I1Cent=           0 NGrid=           0
         NMat0=    1 NMatS0=      1 NMatT0=    0 NMatD0=    1 NMtDS0=    0 NMtDT0=    0
 Symmetry not used in FoFCou.
 End of G2Drv F.D. properties file   721 does not exist.
 End of G2Drv F.D. properties file   722 does not exist.
 End of G2Drv F.D. properties file   788 does not exist.
 Leave Link 1110 at Wed May 11 21:23:24 2022, MaxMem= 67108864000 cpu:               7.1 elap:               0.3
 (Enter /cm/shared/apps/gaussian/intel/EM64T/SSE4_2-enabled/binary//g16/l1002.exe)
 Minotr:  Closed shell wavefunction.
          IDoAtm=1111111111
          Direct CPHF calculation.
          Differentiating once with respect to electric field.
                with respect to dipole field.
          Differentiating once with respect to nuclear coordinates.
          Requested convergence is 1.0D-08 RMS, and 1.0D-07 maximum.
          Secondary convergence is 1.0D-12 RMS, and 1.0D-12 maximum.
          NewPWx=T KeepS1=T KeepF1=T KeepIn=T MapXYZ=F SortEE=F KeepMc=T.
 Keep R1 ints in memory in canonical form, NReq=12226969.
 FoFCou: FMM=F IPFlag=           0 FMFlag=           0 FMFlg1=           0
         NFxFlg=           0 DoJE=F BraDBF=F KetDBF=F FulRan=T
         wScrn=  0.000000 ICntrl=       600 IOpCl=  0 I1Cent=           0 NGrid=           0
         NMat0=    1 NMatS0=   3570 NMatT0=    0 NMatD0=    1 NMtDS0=    0 NMtDT0=    0
 Symmetry not used in FoFCou.
 Two-electron integral symmetry not used.
          MDV=   67108864000 using IRadAn=       1.
          Solving linear equations simultaneously, MaxMat=       0.
          There are    33 degrees of freedom in the 1st order CPHF.  IDoFFX=6 NUNeed=    33.
     30 vectors produced by pass  0 Test12= 4.01D-15 3.03D-09 XBig12= 6.56D+00 1.13D+00.
 AX will form    30 AO Fock derivatives at one time.
     30 vectors produced by pass  1 Test12= 4.01D-15 3.03D-09 XBig12= 6.82D-02 6.05D-02.
     30 vectors produced by pass  2 Test12= 4.01D-15 3.03D-09 XBig12= 7.96D-04 4.91D-03.
     30 vectors produced by pass  3 Test12= 4.01D-15 3.03D-09 XBig12= 6.60D-06 4.84D-04.
     30 vectors produced by pass  4 Test12= 4.01D-15 3.03D-09 XBig12= 5.55D-08 4.20D-05.
     30 vectors produced by pass  5 Test12= 4.01D-15 3.03D-09 XBig12= 2.89D-10 2.78D-06.
     17 vectors produced by pass  6 Test12= 4.01D-15 3.03D-09 XBig12= 1.41D-12 1.98D-07.
      3 vectors produced by pass  7 Test12= 4.01D-15 3.03D-09 XBig12= 6.88D-15 1.28D-08.
 InvSVY:  IOpt=1 It=  1 EMax= 7.46D-16
 Solved reduced A of dimension   200 with    33 vectors.
 FullF1:  Do perturbations      1 to      33.
 Saving first derivative matrices.
 End of Minotr F.D. properties file   721 does not exist.
 End of Minotr F.D. properties file   722 does not exist.
 End of Minotr F.D. properties file   788 does not exist.
 Leave Link 1002 at Wed May 11 21:23:25 2022, MaxMem= 67108864000 cpu:              11.7 elap:               0.4
 (Enter /cm/shared/apps/gaussian/intel/EM64T/SSE4_2-enabled/binary//g16/l811.exe)
 MDV= 67108864000.
 Form MO integral derivatives with frozen-active canonical formalism.
 MOERI=1 MOERIx=1 NAtoms=    10 NAtomX=    10.
 Discarding MO integrals.
 MO basis two electron integral derivatives will not be stored on disk.
 IAlg= 3 DoFC=T DoPWx=T Debug=F.
 Reordered first order wavefunction length =      3500658
 In DefCFB: NBatch=  1 ICI= 21 ICA= 63 LFMax= 63
            Large arrays: LIAPS=    37340352 LIARS=    30339036 words.
 In StABat: MaxSiz= 39 MinSiz= 11 NAtomB=  3
 DoIAMN: NPSUse= 28.
 Leave Link  811 at Wed May 11 21:23:32 2022, MaxMem= 67108864000 cpu:             201.6 elap:               7.2
 (Enter /cm/shared/apps/gaussian/intel/EM64T/SSE4_2-enabled/binary//g16/l804.exe)
 Closed-shell transformation, MDV= 67108864000 ITran=4 ISComp=1.
 Semi-Direct transformation.
 ModeAB=           2 MOrb=            21 LenV=   67108555888
 LASXX=      5044263 LTotXX=     5044263 LenRXX=     5044263
 LTotAB=     5242167 MaxLAS=     6297480 LenRXY=     6297480
 NonZer=    10088526 LenScr=    15880704 LnRSAI=           0
 LnScr1=           0 LExtra=           0 Total=     27222447
 MaxDsk=          -1 SrtSym=           F ITran=            4
 DoSDTr:  NPSUse= 28
 JobTyp=0 Pass  1:  I=   1 to  21.
 (rs|ai) integrals will be sorted in core.
 Complete sort for first half transformation.
 First half transformation complete.
 Begin second half transformation for I=  10.
 Begin second half transformation for I=  20.
 Begin second half transformation for I=  10.
 Begin second half transformation for I=  20.
 Complete sort for second half transformation.
 Second half transformation complete.
 SymMOI:  orbitals are not symmetric.
 Spin components of T(2) and E(2):
     alpha-alpha T2 =       0.1974216795D-01 E2=     -0.6507281702D-01
     alpha-beta  T2 =       0.1141609965D+00 E2=     -0.3775552920D+00
     beta-beta   T2 =       0.1974216795D-01 E2=     -0.6507281702D-01
 ANorm=    0.1518976848D+01
 E2 =    -0.5077009260D+00 EUMP2 =    -0.20311792330910D+03
 Leave Link  804 at Wed May 11 21:23:33 2022, MaxMem= 67108864000 cpu:              29.1 elap:               1.1
 (Enter /cm/shared/apps/gaussian/intel/EM64T/SSE4_2-enabled/binary//g16/l1002.exe)
 Minotr:  Closed shell wavefunction.
          Computing MP2/KS-MP2 derivatives.
          Using Z-Vector for PSCF gradient.
          Skipping F1 and S1 gradient terms here.
          IDoAtm=1111111111
          Using MO integrals in the linear equations.
          Forming densities via direct SCF.
          Differentiating once with respect to electric field.
                with respect to dipole field.
          Differentiating once with respect to nuclear coordinates.
          Requested convergence is 1.0D-10 RMS, and 1.0D-09 maximum.
          NewPWx=F KeepS1=T KeepF1=T KeepIn=T MapXYZ=F SortEE=F KeepMc=T.
          MDV=   67108864000 using IRadAn=       5.
          Solving linear equations separately, MaxMat=       0.
          There are     1 degrees of freedom in the 1st order CPHF.  IDoFFX=0 NUNeed=     1.
 FoFJK:  IHMeth= 1 ICntrl=       0 DoSepK=F KAlg= 0 I1Cent=           0 FoldK=F
 IRaf=         0 NMat=       1 IRICut=       1 DoRegI=T DoRafI=F ISym2E= 0 IDoP0=0 IntGTp=1.
 FoFCou: FMM=F IPFlag=           0 FMFlag=      100000 FMFlg1=           0
         NFxFlg=           0 DoJE=F BraDBF=F KetDBF=F FulRan=T
         wScrn=  0.000000 ICntrl=         0 IOpCl=  0 I1Cent=           0 NGrid=           0
         NMat0=    1 NMatS0=      1 NMatT0=    0 NMatD0=    1 NMtDS0=    0 NMtDT0=    0
 Symmetry not used in FoFCou.
 LinEq1:  Iter=  0 NonCon=     1 RMS=7.60D-03 Max=1.13D-01 NDo=     1
 LinEq1:  Iter=  1 NonCon=     1 RMS=1.78D-03 Max=1.30D-02 NDo=     1
 LinEq1:  Iter=  2 NonCon=     1 RMS=5.45D-04 Max=5.43D-03 NDo=     1
 LinEq1:  Iter=  3 NonCon=     1 RMS=1.85D-04 Max=2.28D-03 NDo=     1
 LinEq1:  Iter=  4 NonCon=     1 RMS=5.17D-05 Max=3.99D-04 NDo=     1
 LinEq1:  Iter=  5 NonCon=     1 RMS=6.56D-06 Max=5.29D-05 NDo=     1
 LinEq1:  Iter=  6 NonCon=     1 RMS=1.71D-06 Max=1.92D-05 NDo=     1
 LinEq1:  Iter=  7 NonCon=     1 RMS=6.47D-07 Max=7.38D-06 NDo=     1
 LinEq1:  Iter=  8 NonCon=     1 RMS=1.01D-07 Max=1.02D-06 NDo=     1
 LinEq1:  Iter=  9 NonCon=     1 RMS=1.45D-08 Max=1.30D-07 NDo=     1
 LinEq1:  Iter= 10 NonCon=     1 RMS=2.05D-09 Max=2.09D-08 NDo=     1
 LinEq1:  Iter= 11 NonCon=     1 RMS=2.60D-10 Max=2.63D-09 NDo=     1
 LinEq1:  Iter= 12 NonCon=     0 RMS=4.36D-11 Max=4.01D-10 NDo=     1
 Linear equations converged to 1.000D-10 1.000D-09 after    12 iterations.
 End of Minotr F.D. properties file   721 does not exist.
 End of Minotr F.D. properties file   722 does not exist.
 End of Minotr F.D. properties file   788 does not exist.
 Leave Link 1002 at Wed May 11 21:23:34 2022, MaxMem= 67108864000 cpu:              21.9 elap:               0.8
 (Enter /cm/shared/apps/gaussian/intel/EM64T/SSE4_2-enabled/binary//g16/l1102.exe)
 Use density number 2.
 Symmetrizing basis deriv contribution to polar:
 IMax=3 JMax=2 DiffMx= 0.00D+00
 Leave Link 1102 at Wed May 11 21:23:34 2022, MaxMem= 67108864000 cpu:               0.7 elap:               0.0
 (Enter /cm/shared/apps/gaussian/intel/EM64T/SSE4_2-enabled/binary//g16/l1110.exe)
 Forming Gx(P) for generalized density number  2 NAtomX=    10.
 Integral derivatives from FoFJK, PRISM(SPDF).
 Do as many integral derivatives as possible in FoFJK.
 G2DrvN: MDV=   67108863164.
 G2DrvN: will do    11 centers at a time, making    1 passes.
 Calling FoFCou, ICntrl=  3107 FMM=F I1Cent=   0 AccDes= 0.00D+00.
 FoFJK:  IHMeth= 1 ICntrl=    3107 DoSepK=F KAlg= 0 I1Cent=           0 FoldK=F
 IRaf=         0 NMat=       1 IRICut=       1 DoRegI=T DoRafI=F ISym2E= 0 IDoP0=0 IntGTp=1.
 FoFCou: FMM=F IPFlag=           0 FMFlag=      100000 FMFlg1=           0
         NFxFlg=           0 DoJE=F BraDBF=F KetDBF=F FulRan=T
         wScrn=  0.000000 ICntrl=      3107 IOpCl=  0 I1Cent=           0 NGrid=           0
         NMat0=    1 NMatS0=      1 NMatT0=    0 NMatD0=    1 NMtDS0=    0 NMtDT0=    0
 Symmetry not used in FoFCou.
 End of G2Drv F.D. properties file   721 does not exist.
 End of G2Drv F.D. properties file   722 does not exist.
 End of G2Drv F.D. properties file   788 does not exist.
 Leave Link 1110 at Wed May 11 21:23:34 2022, MaxMem= 67108864000 cpu:               7.2 elap:               0.3
 (Enter /cm/shared/apps/gaussian/intel/EM64T/SSE4_2-enabled/binary//g16/l1112.exe)
 MP22nd: MDV=   67108864000
 This link is doing NAtomX=    10 total of    33 degrees of freedom.
 Using ON3 I/O method in MakUI.
 Using Ix for Sx.
 Using OV2 memory method for fx*t*t/D, MaxI=    21 DoOO2=F NP=  28.
 R2 and R3 integrals will be kept in memory, NReq=    13568470.
 FoFCou: FMM=F IPFlag=           0 FMFlag=           0 FMFlg1=           0
         NFxFlg=           0 DoJE=F BraDBF=F KetDBF=F FulRan=T
         wScrn=  0.000000 ICntrl=       600 IOpCl=  0 I1Cent=           0 NGrid=           0
         NMat0=    1 NMatS0=      1 NMatT0=    0 NMatD0=    1 NMtDS0=    0 NMtDT0=    0
 Symmetry not used in FoFCou.
 DD1Dir will call FoFMem   1 times, MxPair=       462
 NAB=   231 NAA=     0 NBB=     0.
 Symmetry is being used.
 FoFJK:  IHMeth= 1 ICntrl=       0 DoSepK=F KAlg= 0 I1Cent=           0 FoldK=F
 IRaf=         0 NMat=      33 IRICut=      82 DoRegI=T DoRafI=T ISym2E= 2 IDoP0=0 IntGTp=1.
 Discarding MO integrals.
 Leave Link 1112 at Wed May 11 21:23:40 2022, MaxMem= 67108864000 cpu:             157.1 elap:               5.6
 (Enter /cm/shared/apps/gaussian/intel/EM64T/SSE4_2-enabled/binary//g16/l601.exe)
 Copying SCF densities to generalized density rwf, IOpCl= 0 IROHF=0.

 **********************************************************************

            Population analysis using the SCF density.

 **********************************************************************

 Orbital symmetries:
       Occupied  (A) (A) (A) (A) (A) (A) (A) (A) (A) (A) (A) (A)
                 (A) (A) (A) (A) (A) (A) (A) (A) (A)
       Virtual   (A) (A) (A) (A) (A) (A) (A) (A) (A) (A) (A) (A)
                 (A) (A) (A) (A) (A) (A) (A) (A) (A) (A) (A) (A)
                 (A) (A) (A) (A) (A) (A) (A) (A) (A) (A) (A) (A)
                 (A) (A) (A) (A) (A) (A) (A) (A) (A) (A) (A) (A)
                 (A) (A) (A) (A) (A) (A) (A) (A) (A) (A) (A) (A)
                 (A) (A) (A)
 The electronic state is 1-A.
 Alpha  occ. eigenvalues --   -5.51128  -3.50816  -3.50647  -3.50519  -1.79545
 Alpha  occ. eigenvalues --   -1.77274  -1.74378  -1.15536  -1.14673  -1.12840
 Alpha  occ. eigenvalues --   -1.10032  -1.09280  -1.08443  -1.07777  -1.06744
 Alpha  occ. eigenvalues --   -1.01409  -0.99365  -0.94387  -0.93673  -0.91362
 Alpha  occ. eigenvalues --   -0.88740
 Alpha virt. eigenvalues --   -0.34874  -0.25601  -0.23525  -0.21258  -0.19600
 Alpha virt. eigenvalues --   -0.14070  -0.12509  -0.11619  -0.10890  -0.09950
 Alpha virt. eigenvalues --   -0.08786  -0.07976  -0.07560  -0.05627  -0.04829
 Alpha virt. eigenvalues --   -0.04459  -0.03645  -0.01899  -0.01058   0.00117
 Alpha virt. eigenvalues --    0.02605   0.03551   0.04536   0.07580   0.09879
 Alpha virt. eigenvalues --    0.11198   0.12565   0.14516   0.15248   0.28624
 Alpha virt. eigenvalues --    0.53252   0.56557   0.57153   0.62632   0.74879
 Alpha virt. eigenvalues --    0.96092   1.01206   1.02414   1.03713   1.04361
 Alpha virt. eigenvalues --    1.06349   1.08092   1.08649   1.09502   1.10445
 Alpha virt. eigenvalues --    1.11868   1.13614   1.16042   1.18629   1.19311
 Alpha virt. eigenvalues --    1.26512   1.31709   1.32226   1.39451   2.21566
 Alpha virt. eigenvalues --    2.32402   2.50268   4.16226  15.39943  41.49258
 Alpha virt. eigenvalues --   41.54576  41.61852  81.37600
          Condensed to atoms (all electrons):
               1          2          3          4          5          6
     1  Hg  18.328111   0.088061  -0.002696  -0.001694   0.102683  -0.002792
     2  O    0.088061   6.352175   0.243663   0.245243  -0.000178  -0.000074
     3  H   -0.002696   0.243663   0.207532  -0.010473  -0.000059   0.000000
     4  H   -0.001694   0.245243  -0.010473   0.203947   0.000038   0.000000
     5  O    0.102683  -0.000178  -0.000059   0.000038   6.321238   0.243366
     6  H   -0.002792  -0.000074   0.000000   0.000000   0.243366   0.201399
     7  H   -0.001056   0.000022   0.000000   0.000000   0.243130  -0.010554
     8  O    0.067251  -0.014356   0.000453   0.001883  -0.004200   0.000016
     9  H   -0.003146   0.000597  -0.000000  -0.000029   0.000036  -0.000000
    10  H   -0.000268  -0.000080  -0.000002   0.000009   0.000040  -0.000000
               7          8          9         10
     1  Hg  -0.001056   0.067251  -0.003146  -0.000268
     2  O    0.000022  -0.014356   0.000597  -0.000080
     3  H    0.000000   0.000453  -0.000000  -0.000002
     4  H    0.000000   0.001883  -0.000029   0.000009
     5  O    0.243130  -0.004200   0.000036   0.000040
     6  H   -0.010554   0.000016  -0.000000  -0.000000
     7  H    0.202296  -0.000020   0.000000   0.000001
     8  O   -0.000020   6.388183   0.253390   0.250756
     9  H    0.000000   0.253390   0.221901  -0.012399
    10  H    0.000001   0.250756  -0.012399   0.220100
 Mulliken charges:
               1
     1  Hg   1.425547
     2  O   -0.915072
     3  H    0.561582
     4  H    0.561077
     5  O   -0.906093
     6  H    0.568639
     7  H    0.566181
     8  O   -0.943355
     9  H    0.539651
    10  H    0.541844
 Sum of Mulliken charges =   2.00000
 Mulliken charges with hydrogens summed into heavy atoms:
               1
     1  Hg   1.425547
     2  O    0.207587
     5  O    0.228727
     8  O    0.138140
         Mulliken charges condensed to fragments:
      1      1.425547
      2      0.574453
 APT charges:
               1
     1  Hg   1.675978
     2  O   -0.703989
     3  H    0.418075
     4  H    0.410621
     5  O   -0.698100
     6  H    0.427684
     7  H    0.422445
     8  O   -0.735714
     9  H    0.392097
    10  H    0.390904
 Sum of APT charges =   2.00000
 APT charges with hydrogens summed into heavy atoms:
               1
     1  Hg   1.675978
     2  O    0.124707
     5  O    0.152029
     8  O    0.047286
         APT charges condensed to fragments:
      1      1.675978
      2      0.324022
 Electronic spatial extent (au):  <R**2>=            512.5054
 Charge=              2.0000 electrons
 Dipole moment (field-independent basis, Debye):
    X=              0.6909    Y=              0.6877    Z=              0.2385  Tot=              1.0036
 Quadrupole moment (field-independent basis, Debye-Ang):
   XX=             -5.0789   YY=            -12.7219   ZZ=            -33.4697
   XY=             -1.0561   XZ=              6.2078   YZ=              4.1280
 Traceless Quadrupole moment (field-independent basis, Debye-Ang):
   XX=             12.0113   YY=              4.3683   ZZ=            -16.3795
   XY=             -1.0561   XZ=              6.2078   YZ=              4.1280
 Octapole moment (field-independent basis, Debye-Ang**2):
  XXX=             36.1308  YYY=             11.1215  ZZZ=              1.2800  XYY=            -24.2716
  XXY=            -11.6968  XXZ=              4.2927  XZZ=              1.3526  YZZ=              4.2056
  YYZ=             -2.5309  XYZ=             -2.1572
 Hexadecapole moment (field-independent basis, Debye-Ang**3):
 XXXX=           -148.3037 YYYY=            -60.2914 ZZZZ=            -29.1711 XXXY=             14.5982
 XXXZ=             42.3541 YYYX=            -20.7050 YYYZ=              3.6408 ZZZX=              3.3372
 ZZZY=              3.1529 XXYY=            -32.1958 XXZZ=            -63.9011 YYZZ=            -25.9302
 XXYZ=             27.8178 YYXZ=              5.6008 ZZXY=             -8.3850
 N-N= 1.559619939952D+02 E-N=-7.369032081666D+02  KE= 9.153010598136D+01
  Exact polarizability:  39.497  -0.153  32.744  -0.044   0.456  24.209
 Approx polarizability:  21.912  -0.702  21.462   0.073   0.582  18.165
 No NMR shielding tensors so no spin-rotation constants.
 Leave Link  601 at Wed May 11 21:23:40 2022, MaxMem= 67108864000 cpu:               3.3 elap:               0.1
 (Enter /cm/shared/apps/gaussian/intel/EM64T/SSE4_2-enabled/binary//g16/l701.exe)
 ... and contract with generalized density number  2.
 Compute integral second derivatives.
   1 Symmetry operations used in ECPInt.
 ECPInt:  NShTT=     861 NPrTT=    2675 LenC2=     862 LenP2D=    2342.
 LDataN:  DoStor=T MaxTD1= 9 Len=  602
 Leave Link  701 at Wed May 11 21:23:42 2022, MaxMem= 67108864000 cpu:              32.8 elap:               1.2
 (Enter /cm/shared/apps/gaussian/intel/EM64T/SSE4_2-enabled/binary//g16/l702.exe)
 L702 exits ... SP integral derivatives will be done elsewhere.
 Leave Link  702 at Wed May 11 21:23:42 2022, MaxMem= 67108864000 cpu:               1.2 elap:               0.1
 (Enter /cm/shared/apps/gaussian/intel/EM64T/SSE4_2-enabled/binary//g16/l703.exe)
 Integral derivatives from FoFJK, PRISM(SPDF).
 Compute integral second derivatives, UseDBF=F ICtDFT=           0.
 Calling FoFJK, ICntrl=  10100127 FMM=F ISym2X=0 I1Cent= 0 IOpClX= 0 NMat=1 NMatS=1 NMatT=0.
 FoFJK:  IHMeth= 1 ICntrl=10100127 DoSepK=F KAlg= 0 I1Cent=           0 FoldK=F
 IRaf=         0 NMat=       1 IRICut=       1 DoRegI=T DoRafI=F ISym2E= 0 IDoP0=0 IntGTp=1.
 FoFCou: FMM=F IPFlag=           0 FMFlag=      100000 FMFlg1=         800
         NFxFlg=           0 DoJE=F BraDBF=F KetDBF=F FulRan=T
         wScrn=  0.000000 ICntrl=  10100127 IOpCl=  0 I1Cent=           0 NGrid=           0
         NMat0=    1 NMatS0=      1 NMatT0=    0 NMatD0=    1 NMtDS0=    0 NMtDT0=    0
 Symmetry not used in FoFCou.
 Leave Link  703 at Wed May 11 21:23:42 2022, MaxMem= 67108864000 cpu:              11.2 elap:               0.4
 (Enter /cm/shared/apps/gaussian/intel/EM64T/SSE4_2-enabled/binary//g16/l716.exe)
 Dipole        = 1.98882506D-01 3.08537097D-01 8.65277393D-02
 Polarizability= 3.94972182D+01-1.53428111D-01 3.27436773D+01
                -4.38136765D-02 4.55733859D-01 2.42090915D+01
 Full mass-weighted force constant matrix:
 Low frequencies --- -310.9263 -276.0713 -168.8202  -67.9053  -59.9621  -25.4959
 Low frequencies ---    0.0001    0.0002    0.0002
 ******    4 imaginary frequencies (negative Signs) ****** 
 Diagonal vibrational polarizability:
       65.4561057     228.6441974     141.6056967
 Harmonic frequencies (cm**-1), IR intensities (KM/Mole), Raman scattering
 activities (A**4/AMU), depolarization ratios for plane and unpolarized
 incident light, reduced masses (AMU), force constants (mDyne/A),
 and normal coordinates:
                      1                      2                      3
                      A                      A                      A
 Frequencies --   -309.1975              -273.9170              -150.2571
 Red. masses --      1.0270                 1.0337                 1.0552
 Frc consts  --      0.0578                 0.0457                 0.0140
 IR Inten    --     43.3450                47.8796                35.1431
  Atom  AN      X      Y      Z        X      Y      Z        X      Y      Z
     1  80     0.00  -0.00  -0.00     0.00   0.00  -0.00    -0.00   0.00  -0.01
     2   8     0.01  -0.01  -0.01     0.00  -0.00  -0.01    -0.01   0.01  -0.00
     3   1    -0.01   0.06  -0.32     0.01  -0.01   0.02     0.01  -0.14   0.63
     4   1    -0.09   0.12   0.31     0.02  -0.02  -0.06     0.15  -0.23  -0.53
     5   8    -0.00  -0.00   0.02     0.00  -0.03  -0.01     0.00  -0.00   0.02
     6   1    -0.01  -0.02   0.12    -0.05  -0.13   0.67     0.01  -0.00   0.03
     7   1    -0.00   0.07  -0.06     0.01   0.49  -0.50    -0.00  -0.00   0.03
     8   8    -0.01   0.00   0.02     0.00   0.00   0.02     0.02  -0.00   0.04
     9   1    -0.45  -0.24  -0.32     0.04   0.05   0.08    -0.28  -0.10  -0.12
    10   1     0.54   0.32   0.01    -0.09  -0.07   0.03     0.32   0.11   0.07
                      4                      5                      6
                      A                      A                      A
 Frequencies --    -40.1177                54.4683                82.4469
 Red. masses --      4.5315                 4.7260                 4.8602
 Frc consts  --      0.0043                 0.0083                 0.0195
 IR Inten    --      9.7341                 1.4570                24.4730
  Atom  AN      X      Y      Z        X      Y      Z        X      Y      Z
     1  80     0.01  -0.06  -0.01    -0.03  -0.01   0.01    -0.00   0.00  -0.07
     2   8    -0.12   0.23   0.02     0.10  -0.24  -0.03     0.03  -0.04   0.29
     3   1    -0.32   0.22   0.08     0.30  -0.22  -0.10     0.05  -0.01   0.16
     4   1    -0.01   0.38  -0.03    -0.03  -0.39   0.05    -0.11  -0.05   0.52
     5   8    -0.05   0.33   0.02    -0.04   0.13  -0.04     0.01  -0.02   0.32
     6   1     0.14   0.46   0.07     0.02   0.17  -0.03     0.04  -0.00   0.41
     7   1    -0.22   0.45   0.02    -0.08   0.17  -0.05    -0.13  -0.03   0.42
     8   8     0.04   0.06   0.01     0.31   0.21  -0.01     0.03   0.02   0.10
     9   1     0.06   0.05   0.01     0.45   0.15  -0.04     0.09   0.13   0.23
    10   1     0.08   0.07   0.01     0.29   0.28  -0.06    -0.05  -0.12   0.16
                      7                      8                      9
                      A                      A                      A
 Frequencies --    305.5355               414.5303               470.3593
 Red. masses --      6.4936                 7.0705                 8.1862
 Frc consts  --      0.3572                 0.7158                 1.0671
 IR Inten    --     20.1423                 2.2005                37.4321
  Atom  AN      X      Y      Z        X      Y      Z        X      Y      Z
     1  80     0.02  -0.04   0.00    -0.01  -0.01  -0.00    -0.07  -0.02   0.00
     2   8     0.16   0.02  -0.01     0.43   0.24  -0.03     0.30   0.18  -0.02
     3   1     0.22  -0.02   0.15     0.37   0.21   0.16     0.16   0.14   0.16
     4   1     0.14  -0.07  -0.07     0.32   0.20   0.13     0.23   0.20   0.13
     5   8    -0.03  -0.05   0.01    -0.36  -0.06   0.03     0.53   0.07  -0.04
     6   1    -0.06  -0.07  -0.04    -0.34  -0.03  -0.10     0.37  -0.07   0.21
     7   1     0.02  -0.07  -0.00    -0.26  -0.03  -0.07     0.42  -0.07   0.17
     8   8    -0.33   0.45  -0.01     0.10  -0.13   0.00     0.01  -0.05   0.00
     9   1    -0.20   0.47   0.04     0.08  -0.13  -0.00     0.10  -0.04   0.02
    10   1    -0.26   0.45   0.01     0.02  -0.12  -0.02     0.03  -0.03   0.00
                     10                     11                     12
                      A                      A                      A
 Frequencies --    564.8551               683.9762               697.4901
 Red. masses --      1.1125                 1.1414                 1.1436
 Frc consts  --      0.2091                 0.3146                 0.3278
 IR Inten    --     26.0338               293.8469                95.7213
  Atom  AN      X      Y      Z        X      Y      Z        X      Y      Z
     1  80     0.00   0.00  -0.00     0.00   0.00   0.00     0.00   0.00   0.00
     2   8    -0.00   0.00  -0.01     0.01  -0.03  -0.02     0.01   0.01  -0.08
     3   1    -0.05  -0.02   0.10    -0.29  -0.06   0.16    -0.23  -0.11   0.48
     4   1    -0.02  -0.01   0.02     0.05   0.14   0.10    -0.37  -0.13   0.52
     5   8     0.00  -0.00   0.00    -0.01   0.01   0.01    -0.00  -0.02   0.04
     6   1    -0.00  -0.01   0.05    -0.11  -0.06   0.00     0.18   0.15  -0.27
     7   1    -0.03  -0.00   0.03     0.10  -0.02  -0.04     0.15   0.17  -0.24
     8   8    -0.02  -0.02   0.08    -0.08  -0.02  -0.03     0.01   0.01  -0.00
     9   1     0.45  -0.44  -0.29     0.61   0.08   0.19    -0.13   0.03  -0.00
    10   1    -0.32   0.55  -0.30     0.61   0.04   0.15    -0.13  -0.06  -0.01
                     13                     14                     15
                      A                      A                      A
 Frequencies --    705.0539               724.0970               758.2207
 Red. masses --      1.1542                 1.1350                 1.1194
 Frc consts  --      0.3381                 0.3506                 0.3792
 IR Inten    --    725.5907               126.7963                91.9633
  Atom  AN      X      Y      Z        X      Y      Z        X      Y      Z
     1  80     0.00   0.00   0.00     0.00  -0.00   0.00     0.00  -0.00  -0.00
     2   8     0.01  -0.01  -0.04    -0.04   0.07  -0.01    -0.02   0.02   0.00
     3   1    -0.19  -0.07   0.27     0.63   0.07  -0.03     0.19   0.02  -0.00
     4   1    -0.17  -0.03   0.27    -0.40  -0.50   0.07    -0.13  -0.15   0.03
     5   8    -0.00   0.04  -0.08     0.01  -0.01  -0.02    -0.00   0.07   0.03
     6   1    -0.28  -0.24   0.48     0.13   0.07   0.06    -0.60  -0.33  -0.05
     7   1    -0.32  -0.28   0.45    -0.19   0.02   0.08     0.63  -0.16  -0.15
     8   8     0.01   0.01  -0.00    -0.04  -0.02  -0.01     0.01  -0.00   0.00
     9   1    -0.12   0.04   0.01     0.23   0.01   0.07    -0.04  -0.02  -0.02
    10   1    -0.07  -0.06   0.01     0.22   0.02   0.05    -0.05   0.01  -0.02
                     16                     17                     18
                      A                      A                      A
 Frequencies --   1726.6605              1738.5792              1743.5758
 Red. masses --      1.0887                 1.0848                 1.0849
 Frc consts  --      1.9124                 1.9320                 1.9432
 IR Inten    --    169.4045               102.5724               124.8724
  Atom  AN      X      Y      Z        X      Y      Z        X      Y      Z
     1  80    -0.00   0.00  -0.00     0.00   0.00   0.00    -0.00   0.00  -0.00
     2   8    -0.05  -0.03  -0.03     0.01   0.01   0.01     0.00   0.00   0.00
     3   1     0.61  -0.07   0.32    -0.17   0.02  -0.08    -0.02   0.00  -0.01
     4   1     0.22   0.60   0.21    -0.06  -0.16  -0.06    -0.01  -0.01  -0.01
     5   8    -0.00  -0.00  -0.00     0.00  -0.00   0.00    -0.07   0.01  -0.03
     6   1     0.01   0.00   0.01    -0.01  -0.01  -0.01     0.49   0.29   0.42
     7   1     0.01  -0.01   0.00    -0.02   0.01  -0.00     0.56  -0.42   0.05
     8   8     0.01  -0.02  -0.00     0.01  -0.07  -0.01     0.00  -0.00  -0.00
     9   1    -0.05   0.13   0.12    -0.18   0.48   0.45    -0.01   0.01   0.01
    10   1    -0.01   0.16  -0.08    -0.00   0.61  -0.30    -0.00   0.01  -0.01
                     19                     20                     21
                      A                      A                      A
 Frequencies --   3586.9744              3600.7788              3640.7222
 Red. masses --      1.0403                 1.0401                 1.0405
 Frc consts  --      7.8865                 7.9451                 8.1255
 IR Inten    --    338.7468               138.2808               130.1734
  Atom  AN      X      Y      Z        X      Y      Z        X      Y      Z
     1  80     0.00  -0.00   0.00     0.00  -0.00  -0.00     0.00  -0.00  -0.00
     2   8     0.01   0.01   0.01    -0.03  -0.02  -0.02     0.00   0.00   0.00
     3   1     0.01  -0.16  -0.03    -0.03   0.68   0.12     0.00  -0.02  -0.00
     4   1    -0.12   0.08  -0.06     0.53  -0.34   0.27    -0.02   0.01  -0.01
     5   8     0.04  -0.01   0.02     0.01  -0.00   0.00    -0.00   0.00  -0.00
     6   1    -0.37   0.59   0.10    -0.09   0.13   0.02     0.02  -0.03  -0.01
     7   1    -0.25  -0.45  -0.43    -0.06  -0.10  -0.10     0.01   0.02   0.02
     8   8     0.00  -0.00  -0.00    -0.00  -0.00  -0.00     0.01  -0.05  -0.00
     9   1     0.00   0.02  -0.02     0.00   0.02  -0.02     0.10   0.48  -0.54
    10   1    -0.01   0.01   0.02    -0.01   0.01   0.03    -0.18   0.26   0.61
                     22                     23                     24
                      A                      A                      A
 Frequencies --   3687.6014              3706.4754              3741.2630
 Red. masses --      1.0861                 1.0863                 1.0846
 Frc consts  --      8.7019                 8.7929                 8.9445
 IR Inten    --    293.5495               289.5087               222.1415
  Atom  AN      X      Y      Z        X      Y      Z        X      Y      Z
     1  80    -0.00   0.00  -0.00     0.00   0.00   0.00    -0.00  -0.00   0.00
     2   8    -0.00   0.00  -0.00     0.04  -0.06   0.01    -0.00   0.00   0.00
     3   1    -0.00  -0.02  -0.00     0.00   0.68   0.16    -0.00  -0.00  -0.00
     4   1     0.01  -0.01   0.01    -0.56   0.31  -0.31     0.00  -0.00   0.00
     5   8     0.01  -0.06  -0.03     0.00  -0.00  -0.00    -0.00  -0.00  -0.00
     6   1    -0.39   0.56   0.06    -0.01   0.02   0.00    -0.00   0.00   0.00
     7   1     0.30   0.44   0.48     0.01   0.01   0.01     0.00   0.00   0.00
     8   8    -0.00  -0.00   0.00     0.00   0.00  -0.00     0.02   0.01  -0.07
     9   1     0.00   0.00  -0.00    -0.00  -0.00   0.00    -0.09  -0.49   0.47
    10   1     0.00  -0.00  -0.00    -0.00  -0.00  -0.00    -0.18   0.33   0.62

 -------------------
 - Thermochemistry -
 -------------------
 Temperature   298.150 Kelvin.  Pressure   1.00000 Atm.
 Atom     1 has atomic number 80 and mass 201.97060
 Atom     2 has atomic number  8 and mass  15.99491
 Atom     3 has atomic number  1 and mass   1.00783
 Atom     4 has atomic number  1 and mass   1.00783
 Atom     5 has atomic number  8 and mass  15.99491
 Atom     6 has atomic number  1 and mass   1.00783
 Atom     7 has atomic number  1 and mass   1.00783
 Atom     8 has atomic number  8 and mass  15.99491
 Atom     9 has atomic number  1 and mass   1.00783
 Atom    10 has atomic number  1 and mass   1.00783
 Molecular mass:   256.00229 amu.
 Principal axes and moments of inertia in atomic units:
                           1         2         3
     Eigenvalues --   331.55340 672.78165 991.36105
           X            0.99995  -0.00146   0.01025
           Y            0.00132   0.99990   0.01387
           Z           -0.01027  -0.01386   0.99985
 This molecule is an asymmetric top.
 Rotational symmetry number  1.
 Rotational temperatures (Kelvin)      0.26124     0.12874     0.08737
 Rotational constants (GHZ):           5.44329     2.68251     1.82047
    4 imaginary frequencies ignored.
 Zero-point vibrational energy     195192.7 (Joules/Mol)
                                   46.65216 (Kcal/Mol)
 Warning -- explicit consideration of   6 degrees of freedom as
           vibrations may cause significant error
 Vibrational temperatures:     78.37   118.62   439.60   596.42   676.74
          (Kelvin)            812.70   984.09  1003.53  1014.42  1041.81
                             1090.91  2484.28  2501.43  2508.62  5160.86
                             5180.72  5238.19  5305.64  5332.79  5382.84
 
 Zero-point correction=                           0.074345 (Hartree/Particle)
 Thermal correction to Energy=                    0.080452
 Thermal correction to Enthalpy=                  0.081396
 Thermal correction to Gibbs Free Energy=         0.042001
 Sum of electronic and zero-point Energies=           -203.043578
 Sum of electronic and thermal Energies=              -203.037472
 Sum of electronic and thermal Enthalpies=            -203.036527
 Sum of electronic and thermal Free Energies=         -203.075922
 
                     E (Thermal)             CV                S
                      KCal/Mol        Cal/Mol-Kelvin    Cal/Mol-Kelvin
 Total                   50.484             19.540             82.913
 Electronic               0.000              0.000              0.000
 Translational            0.889              2.981             42.520
 Rotational               0.889              2.981             26.894
 Vibrational             48.707             13.578             13.498
 Vibration     1          0.596              1.976              4.648
 Vibration     2          0.600              1.961              3.832
 Vibration     3          0.696              1.663              1.386
 Vibration     4          0.778              1.439              0.911
 Vibration     5          0.827              1.316              0.737
 Vibration     6          0.921              1.107              0.514
                       Q            Log10(Q)             Ln(Q)
 Total Bot       0.479467D-19        -19.319241        -44.484196
 Total V=0       0.753416D+15         14.877035         34.255639
 Vib (Bot)       0.176915D-32        -32.752236        -75.414810
 Vib (Bot)    1  0.379357D+01          0.579048          1.333308
 Vib (Bot)    2  0.249693D+01          0.397406          0.915062
 Vib (Bot)    3  0.620484D+00         -0.207269         -0.477256
 Vib (Bot)    4  0.425350D+00         -0.371254         -0.854844
 Vib (Bot)    5  0.358498D+00         -0.445513         -1.025832
 Vib (Bot)    6  0.273852D+00         -0.562485         -1.295169
 Vib (V=0)       0.277997D+02          1.444040          3.325025
 Vib (V=0)    1  0.432638D+01          0.636125          1.464731
 Vib (V=0)    2  0.304650D+01          0.483801          1.113993
 Vib (V=0)    3  0.129687D+01          0.112896          0.259953
 Vib (V=0)    4  0.115645D+01          0.063126          0.145352
 Vib (V=0)    5  0.111524D+01          0.047369          0.109070
 Vib (V=0)    6  0.107008D+01          0.029417          0.067736
 Electronic      0.100000D+01          0.000000          0.000000
 Translational   0.160998D+09          8.206820         18.896901
 Rotational      0.168335D+06          5.226175         12.033713
 
                      file 'w3s2.log' Now we use Def2-QZVPPD, but it was opt at: 
 ---' #p ZORA-SR+SO PBE QZ4P'---
                                                             IR Spectrum
 
     333 333                                                            111                                                          
     776 665                                                            777                              77766   5   44   3          
     408 408                                                            432                              52098   6   71   0       85 
     168 117                                                            497                              84574   5   05   6       24 
 
     XXX XXX                                                            XXX                              XXXXX   X   XX   X       XX 
     XXX XXX                                                            XXX                              XXXXX                       
     XXX XXX                                                            XXX                              XXXXX                       
     XXX XXX                                                              X                                X X                       
     XXX   X                                                              X                                X X                       
     XXX   X                                                                                               X X                       
      XX   X                                                                                               X X                       
      XX   X                                                                                               X X                       
           X                                                                                               X                         
                                                                                                           X                         
                                                                                                           X                         
                                                                                                           X                         
                                                                                                           X                         
                                                                                                           X                         
                                                                                                           X                         
                                                                                                           X                         
                                                                                                           X                         
                                                                                                           X                         
                                                                                                           X                         
                                                                                                           X                         
 
 ***** Axes restored to original set *****
 -------------------------------------------------------------------
 Center     Atomic                   Forces (Hartrees/Bohr)
 Number     Number              X              Y              Z
 -------------------------------------------------------------------
      1       80          -0.007897984    0.004891429   -0.000557525
      2        8           0.005029484   -0.003746960   -0.018331788
      3        1          -0.001141490   -0.007601762    0.008870075
      4        1          -0.007089276    0.007938542    0.005834369
      5        8          -0.001654372   -0.008281888    0.017875747
      6        1           0.004571620   -0.003934826   -0.010396671
      7        1           0.004443045    0.010461184   -0.003640281
      8        8           0.016424284    0.001377220    0.002580027
      9        1          -0.004114833    0.000431014   -0.010830226
     10        1          -0.008570478   -0.001533954    0.008596272
 -------------------------------------------------------------------
 Cartesian Forces:  Max     0.018331788 RMS     0.008138972
 Z-matrix is all fixed cartesians, so copy forces.
 Force constants in Cartesian coordinates: 
                1             2             3             4             5 
      1  0.257010D+00
      2  0.223126D-01  0.564193D-01
      3 -0.811371D-02 -0.647648D-04  0.240927D-01
      4 -0.918276D-01 -0.172862D-01  0.964746D-02  0.434849D+00
      5 -0.396488D-01 -0.266083D-01  0.697614D-02 -0.818372D-01  0.637760D+00
      6 -0.338581D-02  0.219685D-03 -0.109442D-01  0.172623D+00 -0.158781D-01
      7 -0.348001D-02 -0.980836D-02 -0.138344D-02 -0.603939D-01 -0.511163D-01
      8 -0.332276D-02 -0.320127D-02 -0.213511D-02 -0.133414D-01 -0.446904D+00
      9  0.345616D-02  0.221541D-02  0.152242D-02 -0.208007D-01 -0.923747D-01
     10 -0.120309D-01  0.134098D-02 -0.506226D-02 -0.288979D+00  0.164451D+00
     11 -0.748393D-02  0.100489D-01 -0.199967D-02  0.125006D+00 -0.151497D+00
     12  0.415414D-02 -0.600248D-03  0.250536D-02 -0.160992D+00  0.100689D+00
     13 -0.110822D+00 -0.168250D-01  0.120764D-01  0.952228D-03  0.620371D-02
     14  0.290819D-02 -0.135871D-01 -0.626799D-02 -0.662605D-02  0.564734D-03
     15 -0.276424D-02 -0.422387D-02 -0.134570D-01 -0.115015D-02 -0.449476D-03
     16 -0.110757D-01  0.910607D-02  0.836903D-03  0.213049D-02  0.414329D-03
     17 -0.857704D-03  0.353505D-02  0.261233D-02 -0.314567D-03 -0.558378D-04
     18  0.426170D-02 -0.928845D-03  0.220117D-02 -0.481305D-03  0.548499D-04
     19 -0.970651D-02 -0.751454D-02 -0.805869D-02 -0.222490D-03  0.601234D-03
     20 -0.352714D-02  0.529165D-02  0.321558D-04  0.107293D-02 -0.324815D-03
     21  0.301744D-02  0.300898D-02  0.284068D-02  0.121802D-02 -0.282063D-03
     22 -0.193997D-01  0.960330D-02  0.336837D-03  0.396613D-02 -0.342326D-03
     23  0.257404D-01 -0.272691D-01  0.221454D-02 -0.529534D-02 -0.110667D-01
     24  0.252248D-03 -0.239528D-03 -0.152895D-01 -0.424594D-03  0.173265D-02
     25  0.119921D-02  0.390544D-02 -0.396975D-02  0.267320D-03  0.890133D-03
     26  0.911169D-03 -0.313808D-02  0.424059D-02 -0.245788D-03 -0.129922D-02
     27 -0.507532D-03  0.332343D-02  0.297992D-02 -0.945996D-03 -0.184678D-02
     28  0.133157D-03  0.516567D-02  0.369026D-02 -0.741938D-03  0.384432D-03
     29  0.296797D-02 -0.149116D-02 -0.560821D-02 -0.113224D-02 -0.568681D-03
     30 -0.370395D-03 -0.271024D-02  0.354850D-02  0.130684D-02  0.137813D-02
                6             7             8             9            10 
      6  0.139346D+00
      7 -0.252152D-01  0.555080D-01
      8 -0.515033D-01  0.236433D-01  0.468894D+00
      9 -0.339861D-01  0.212917D-01  0.651433D-01  0.255668D-01
     10 -0.143352D+00  0.633813D-02 -0.731473D-02 -0.355095D-02  0.294247D+00
     11  0.663960D-01  0.399368D-01 -0.204127D-01  0.241818D-01 -0.160127D+00
     12 -0.979639D-01  0.498581D-02 -0.116582D-01  0.607510D-02  0.151315D+00
     13 -0.102580D-02  0.127975D-02  0.111759D-02 -0.320897D-03  0.209867D-03
     14  0.275715D-03  0.107822D-03  0.466371D-03 -0.629606D-04 -0.326155D-03
     15  0.214173D-02  0.109805D-03  0.318074D-03  0.194457D-04  0.224752D-03
     16  0.631713D-05 -0.106243D-03 -0.262579D-03  0.267962D-04 -0.110570D-03
     17 -0.324111D-03 -0.151949D-03  0.465216D-03  0.626219D-05  0.101681D-03
     18 -0.116118D-03  0.349829D-04  0.805485D-04  0.180924D-03  0.650940D-05
     19  0.287068D-03  0.271623D-04 -0.532631D-04  0.302754D-05 -0.169844D-03
     20 -0.287722D-04 -0.217077D-03 -0.240446D-03  0.106621D-04 -0.138477D-03
     21 -0.391373D-04 -0.105776D-03 -0.243402D-03  0.947966D-04 -0.779716D-05
     22 -0.115411D-03  0.456931D-03 -0.414674D-03 -0.111832D-03 -0.464649D-03
     23  0.352390D-03 -0.178166D-02  0.117433D-02  0.553743D-03  0.198516D-02
     24  0.263211D-02  0.404645D-03  0.102877D-03  0.389273D-03  0.492326D-03
     25 -0.724591D-04  0.324354D-03 -0.673015D-04  0.544224D-04  0.327026D-03
     26 -0.376262D-03 -0.339525D-03 -0.102174D-03  0.984188D-04 -0.812486D-04
     27 -0.217554D-03 -0.257216D-03  0.355736D-04  0.646858D-04  0.295099D-03
     28  0.250502D-03  0.457977D-04  0.158961D-04 -0.477306D-04  0.632754D-03
     29  0.866784D-03 -0.272942D-03 -0.138898D-03  0.228016D-03  0.108721D-03
     30 -0.852754D-03  0.134739D-03 -0.140373D-03  0.726184D-04 -0.361078D-03
               11            12            13            14            15 
     11  0.164120D+00
     12 -0.888761D-01  0.906543D-01
     13 -0.873328D-03  0.559273D-03  0.421531D+00
     14 -0.159588D-02  0.659690D-03 -0.617687D-01  0.572412D+00
     15 -0.225436D-04  0.127333D-03  0.134997D+00  0.205786D+00  0.220218D+00
     16  0.448947D-03 -0.165064D-03 -0.156860D+00  0.192561D+00  0.688214D-02
     17 -0.243210D-04  0.857951D-04  0.162076D+00 -0.351842D+00 -0.519319D-01
     18 -0.796009D-04  0.113859D-03 -0.158213D-01 -0.126471D-01 -0.277517D-01
     19 -0.150605D-03  0.874136D-04 -0.151481D+00 -0.129970D+00 -0.138854D+00
     20  0.389830D-03 -0.117452D-03 -0.926025D-01 -0.202467D+00 -0.148856D+00
     21  0.276606D-03 -0.591095D-04 -0.130695D+00 -0.188241D+00 -0.182154D+00
     22  0.468589D-02  0.264035D-03 -0.379744D-02  0.345305D-02  0.471530D-03
     23  0.117028D-03  0.229326D-03  0.358705D-02 -0.332343D-02 -0.727067D-03
     24  0.277024D-03 -0.255797D-02  0.477139D-03  0.435765D-03  0.146975D-02
     25 -0.446670D-03  0.544697D-03 -0.635240D-03 -0.701196D-04  0.452899D-03
     26 -0.314230D-03  0.594972D-03 -0.681686D-03 -0.222370D-03 -0.128489D-03
     27  0.530545D-04  0.643685D-03  0.103600D-02 -0.807767D-03 -0.483615D-03
     28 -0.996183D-03 -0.753279D-03 -0.377244D-03 -0.268882D-03 -0.370316D-03
     29 -0.831863D-03 -0.100721D-02 -0.232954D-03 -0.405481D-03  0.235117D-03
     30 -0.206659D-03  0.461372D-03 -0.128281D-02  0.869500D-03 -0.129896D-03
               16            17            18            19            20 
     16  0.152115D+00
     17 -0.180253D+00  0.370513D+00
     18 -0.596377D-03  0.454707D-01  0.241722D-01
     19  0.145434D-01  0.204918D-01  0.128487D-01  0.146756D+00
     20 -0.224880D-01 -0.233983D-01 -0.322535D-01  0.116870D+00  0.221782D+00
     21 -0.700081D-02  0.422478D-02  0.900296D-03  0.133343D+00  0.181239D+00
     22 -0.334496D-03 -0.136310D-02 -0.338094D-03  0.834116D-03  0.232726D-04
     23  0.226744D-03  0.990832D-03  0.374743D-03 -0.556559D-03 -0.141683D-02
     24  0.100231D-03 -0.175054D-03  0.133915D-03  0.594504D-03 -0.206600D-03
     25 -0.153866D-03  0.774629D-04  0.650602D-04 -0.122853D-03  0.535418D-03
     26  0.989437D-04 -0.128971D-03 -0.700778D-04  0.108061D-03  0.223254D-03
     27  0.715487D-04  0.295777D-03  0.186127D-03 -0.386114D-03  0.502296D-04
     28 -0.148313D-03  0.193622D-03  0.201566D-04 -0.457873D-03  0.472060D-03
     29  0.147815D-03 -0.555081D-04 -0.172422D-05  0.174344D-03  0.159954D-03
     30 -0.161682D-03 -0.264596D-03 -0.206146D-04  0.134388D-03  0.130664D-03
               21            22            23            24            25 
     21  0.178402D+00
     22  0.394812D-03  0.773430D-01
     23 -0.917457D-04 -0.252937D-01  0.448992D+00
     24 -0.394567D-03 -0.124445D+00 -0.254370D-01  0.633120D+00
     25 -0.290862D-03 -0.292245D-01 -0.333090D-01  0.590331D-01  0.216956D-01
     26  0.117317D-03 -0.409768D-01 -0.241300D+00  0.231407D+00  0.369499D-01
     27  0.115254D-03  0.528305D-01  0.172208D+00 -0.272653D+00 -0.620909D-01
     28  0.126815D-03 -0.293794D-01  0.346969D-01  0.635156D-01  0.632291D-02
     29 -0.809394D-05  0.506250D-01 -0.166898D+00 -0.207897D+00 -0.846527D-02
     30  0.294062D-03  0.707129D-01 -0.149677D+00 -0.346850D+00  0.627371D-02
               26            27            28            29            30 
     26  0.233424D+00
     27 -0.208736D+00  0.300896D+00
     28  0.425692D-02  0.995454D-02  0.239702D-01
     29  0.128581D-01  0.354239D-01 -0.439205D-01  0.157372D+00
     30 -0.271480D-01 -0.315312D-01 -0.763866D-01  0.177769D+00  0.375008D+00
 Leave Link  716 at Wed May 11 21:23:42 2022, MaxMem= 67108864000 cpu:               2.9 elap:               0.1
 (Enter /cm/shared/apps/gaussian/intel/EM64T/SSE4_2-enabled/binary//g16/l103.exe)

 GradGradGradGradGradGradGradGradGradGradGradGradGradGradGradGradGradGrad
 Berny optimization.
 Search for a local minimum.
 Step number   1 out of a maximum of    2
 All quantities printed in internal units (Hartrees-Bohrs-Radians)
 Second derivative matrix not updated -- analytic derivatives used.
 ITU=  0
     Eigenvalues ---   -0.00378  -0.00304  -0.00073  -0.00042   0.00079
     Eigenvalues ---    0.00383   0.02512   0.02866   0.03070   0.03368
     Eigenvalues ---    0.05195   0.06012   0.06521   0.07373   0.15227
     Eigenvalues ---    0.19964   0.20713   0.30124   0.78927   0.81269
     Eigenvalues ---    0.82244   1.00215   1.03709   1.08747
 Eigenvalue     1 is  -3.78D-03 should be greater than     0.000000 Eigenvector:
                          X10       X9        Z3        Z4        Y10
   1                    0.53947  -0.49686  -0.37718   0.30510   0.24541
                          Z9        Y9        Z6        Y4        Y7
   1                   -0.22282  -0.21180   0.18568   0.10660   0.06864
 Eigenvalue     2 is  -3.04D-03 should be greater than     0.000000 Eigenvector:
                          Z6        Z7        Y7        Y6        Z9
   1                    0.63546  -0.57346   0.33366  -0.22036   0.13414
                          X10       Y5        Y9        Z10       X7
   1                   -0.12700  -0.12687   0.09516   0.08557   0.08466
 Eigenvalue     3 is  -7.27D-04 should be greater than     0.000000 Eigenvector:
                          Z4        Z3        X9        Y4        X10
   1                    0.46753  -0.46714   0.36961   0.34462  -0.26393
                          Y7        X3        Y6        Y1        Z10
   1                    0.19223  -0.18282   0.17776  -0.16793  -0.12285
 Eigenvalue     4 is  -4.16D-04 should be greater than     0.000000 Eigenvector:
                          X3        Y7        Z4        Z3        X10
   1                    0.37666  -0.34429   0.32597  -0.31356  -0.30090
                          Y6        Y1        Y4        X6        X7
   1                   -0.29438   0.27031  -0.22196  -0.20762   0.18268
 Quadratic step=1.824D+00 exceeds max=3.000D-01 adjusted using Lamda=-7.351D-02.
 Angle between NR and scaled steps=  62.39 degrees.
 Angle between quadratic step and forces=  25.60 degrees.
 Linear search not attempted -- first point.
 B after Tr=     0.003213    0.001960   -0.000143
         Rot=    0.999990   -0.002411    0.003418    0.001368 Ang=  -0.50 deg.
 Variable       Old X    -DE/DX   Delta X   Delta X   Delta X     New X
                                 (Linear)    (Quad)   (Total)
    X1        0.21696  -0.00790   0.00000  -0.02712  -0.02385   0.19311
    Y1        0.02300   0.00489   0.00000   0.03072   0.03210   0.05510
    Z1        0.01976  -0.00056   0.00000  -0.00641  -0.00500   0.01476
    X2       -3.41927   0.00503   0.00000   0.02632   0.02268  -3.39660
    Y2       -1.78718  -0.00375   0.00000  -0.02978  -0.01986  -1.80704
    Z2        0.38443  -0.01833   0.00000  -0.09217  -0.12428   0.26015
    X3       -3.58737  -0.00114   0.00000  -0.02733  -0.03496  -3.62233
    Y3       -3.60331  -0.00760   0.00000  -0.05696  -0.04569  -3.64899
    Z3        0.04801   0.00887   0.00000   0.09598   0.05345   0.10147
    X4       -4.84270  -0.00709   0.00000  -0.05679  -0.05359  -4.89629
    Y4       -0.91958   0.00794   0.00000   0.00067   0.01778  -0.90180
    Z4       -0.42791   0.00583   0.00000   0.08464   0.04661  -0.38131
    X5        4.22456  -0.00165   0.00000  -0.02346  -0.01844   4.20612
    Y5        0.22460  -0.00828   0.00000  -0.04560  -0.05420   0.17040
    Z5       -0.29974   0.01788   0.00000   0.09085   0.12027  -0.17947
    X6        5.16465   0.00457   0.00000   0.04110   0.04369   5.20834
    Y6       -1.37423  -0.00393   0.00000   0.00352  -0.00654  -1.38077
    Z6       -0.38701  -0.01040   0.00000  -0.08868  -0.05988  -0.44688
    X7        5.14027   0.00444   0.00000   0.04556   0.04714   5.18741
    Y7        1.35133   0.01046   0.00000   0.06675   0.05065   1.40197
    Z7        0.85680  -0.00364   0.00000  -0.07498  -0.03288   0.82392
    X8       -2.25624   0.01642   0.00000   0.09787   0.11204  -2.14420
    Y8        3.68373   0.00138   0.00000   0.02280   0.03122   3.71495
    Z8       -0.14022   0.00258   0.00000   0.02093   0.02396  -0.11626
    X9       -1.96959  -0.00411   0.00000  -0.06315  -0.03604  -2.00563
    Y9        4.93250   0.00043   0.00000  -0.01160   0.00323   4.93572
    Z9       -1.47491  -0.01083   0.00000  -0.05283  -0.04302  -1.51793
   X10       -2.56887  -0.00857   0.00000  -0.06485  -0.05866  -2.62754
   Y10        4.65206  -0.00153   0.00000  -0.01099  -0.00869   4.64337
   Z10        1.40392   0.00860   0.00000   0.01652   0.02077   1.42469
         Item               Value     Threshold  Converged?
 Maximum Force            0.018332     0.000450     NO 
 RMS     Force            0.008139     0.000300     NO 
 Maximum Displacement     0.124278     0.001800     NO 
 RMS     Displacement     0.051596     0.001200     NO 
 Predicted change in Energy=-9.342031D-03
 GradGradGradGradGradGradGradGradGradGradGradGradGradGradGradGradGradGrad

 Leave Link  103 at Wed May 11 21:23:42 2022, MaxMem= 67108864000 cpu:               0.5 elap:               0.0
 (Enter /cm/shared/apps/gaussian/intel/EM64T/SSE4_2-enabled/binary//g16/l9999.exe)

 ----------------------------------------------------------------------

 Electric dipole moment (input orientation):
 (Debye = 10**-18 statcoulomb cm , SI units = C m)
                  (au)            (Debye)         (10**-30 SI)
   Tot        0.377142D+00      0.958600D+00      0.319755D+01
   x          0.224370D+00      0.570292D+00      0.190229D+01
   y          0.296700D+00      0.754135D+00      0.251552D+01
   z          0.621590D-01      0.157992D+00      0.527006D+00

 Dipole polarizability, Alpha (input orientation).
 (esu units = cm**3 , SI units = C**2 m**2 J**-1)
 Alpha(0;0):
               (au)            (10**-24 esu)      (10**-40 SI)
   iso        0.321500D+02      0.476414D+01      0.530082D+01
   aniso      0.132961D+02      0.197029D+01      0.219224D+01
   xx         0.394129D+02      0.584038D+01      0.649830D+01
   yx        -0.661148D+00     -0.979720D-01     -0.109009D+00
   yy         0.328300D+02      0.486491D+01      0.541294D+01
   zx        -0.583489D+00     -0.864641D-01     -0.962043D-01
   zy         0.317779D-01      0.470901D-02      0.523948D-02
   zz         0.242071D+02      0.358712D+01      0.399121D+01

 ----------------------------------------------------------------------

 Dipole orientation:
    80          0.13004275         -0.09193712          0.15042916
     8         -1.89092728          0.23385489         -3.37682361
     1         -1.07808319         -0.28510667         -4.96102767
     1         -2.74716947          1.85147994         -3.67498993
     8          3.02899606         -1.35637705          2.64057525
     1          4.37776916         -2.41477190          1.92766307
     1          2.52569437         -2.10610520          4.26237008
     8         -2.96739389          2.74331812          1.53260926
     1         -2.47557031          4.26340825          2.46557456
     1         -4.49275648          2.10798028          2.36290731

 Electric dipole moment (dipole orientation):
 (Debye = 10**-18 statcoulomb cm , SI units = C m)
                  (au)            (Debye)         (10**-30 SI)
   Tot        0.377142D+00      0.958600D+00      0.319755D+01
   x          0.000000D+00      0.000000D+00      0.000000D+00
   y          0.000000D+00      0.000000D+00      0.000000D+00
   z          0.377142D+00      0.958600D+00      0.319755D+01

 Dipole polarizability, Alpha (dipole orientation).
 (esu units = cm**3 , SI units = C**2 m**2 J**-1)
 Alpha(0;0):
               (au)            (10**-24 esu)      (10**-40 SI)
   iso        0.321500D+02      0.476414D+01      0.530082D+01
   aniso      0.132961D+02      0.197029D+01      0.219224D+01
   xx         0.338367D+02      0.501407D+01      0.557891D+01
   yx        -0.601827D+01     -0.891815D+00     -0.992278D+00
   yy         0.284127D+02      0.421033D+01      0.468463D+01
   zx         0.349035D+01      0.517217D+00      0.575482D+00
   zy        -0.136354D+00     -0.202055D-01     -0.224817D-01
   zz         0.342006D+02      0.506801D+01      0.563892D+01

 ----------------------------------------------------------------------
 1\1\GINC-CTCP002\Freq\RMP2-Full\SDDAll\H6Hg1O3(2+)\FLOREZ\11-May-2022\
 0\\#p MP2(full) SDDAll freq\\file 'w3s2.log' Now we use Def2-QZVPPD, b
 ut it was opt at: ---' #p ZORA-SR+SO PBE QZ4P'---\\2,1\Hg,0.114812,0.0
 12173,0.010454\O,-1.809402,-0.945735,0.203429\H,-1.898355,-1.906787,0.
 025408\H,-2.562646,-0.48662,-0.226442\O,2.235542,0.118853,-0.158615\H,
 2.733014,-0.727211,-0.204796\H,2.720116,0.715092,0.453398\O,-1.19395,1
 .949344,-0.074199\H,-1.042264,2.610164,-0.780487\H,-1.359389,2.461764,
 0.742925\\Version=ES64L-G16RevA.03\State=1-A\HF=-202.6102224\MP2=-203.
 1179233\RMSD=2.637e-09\RMSF=8.139e-03\ZeroPoint=0.074345\Thermal=0.080
 4516\Dipole=0.2243702,0.2966997,0.062159\DipoleDeriv=2.1233307,-0.0201
 076,-0.0296704,0.0035038,1.729622,-0.0410955,0.0319727,-0.0137233,1.17
 49811,-0.8258929,-0.1593717,0.0864044,-0.0606445,-0.7135988,0.0441832,
 0.0022675,0.0294711,-0.5724744,0.321503,-0.0367313,-0.0227871,0.098729
 7,0.4978063,-0.0428853,-0.0250989,-0.0421896,0.4349162,0.4520023,-0.00
 64712,-0.0348369,-0.1441373,0.3707166,0.0116194,0.0146945,0.0205061,0.
 4091436,-0.90476,0.00404,0.0761852,-0.0214334,-0.6316192,0.0036572,-0.
 0053313,-0.0206384,-0.5579221,0.3926087,-0.0202044,-0.0478612,-0.16596
 39,0.4384159,0.0269984,-0.0800426,0.0222329,0.4520281,0.386193,0.03742
 4,-0.0083451,0.1659561,0.4657847,-0.0148579,0.0761326,-0.0005824,0.415
 3575,-0.8239396,0.1606115,-0.0354946,0.1272048,-0.8210369,0.0202365,-0
 .0286969,0.0078919,-0.5621662,0.421703,0.0321062,0.0388517,-0.0116303,
 0.3363376,-0.0058592,0.0783341,-0.0707483,0.4182489,0.4572518,0.008704
 5,-0.022446,0.0084149,0.3275718,-0.0019968,-0.0642316,0.06778,0.387887
 2\Polar=39.4128656,-0.661148,32.8300171,-0.5834886,0.0317779,24.207104
 3\PG=C01 [X(H6Hg1O3)]\NImag=4\\0.25700998,0.02231265,0.05641933,-0.008
 11371,-0.00006476,0.02409266,-0.09182765,-0.01728616,0.00964746,0.4348
 4851,-0.03964879,-0.02660827,0.00697614,-0.08183717,0.63776028,-0.0033
 8581,0.00021969,-0.01094421,0.17262277,-0.01587814,0.13934595,-0.00348
 001,-0.00980836,-0.00138344,-0.06039391,-0.05111634,-0.02521520,0.0555
 0804,-0.00332276,-0.00320127,-0.00213511,-0.01334143,-0.44690442,-0.05
 150329,0.02364326,0.46889404,0.00345616,0.00221541,0.00152242,-0.02080
 066,-0.09237471,-0.03398611,0.02129166,0.06514331,0.02556685,-0.012030
 93,0.00134098,-0.00506226,-0.28897869,0.16445079,-0.14335197,0.0063381
 3,-0.00731473,-0.00355095,0.29424691,-0.00748393,0.01004894,-0.0019996
 7,0.12500582,-0.15149703,0.06639600,0.03993678,-0.02041274,0.02418185,
 -0.16012672,0.16412026,0.00415414,-0.00060025,0.00250536,-0.16099239,0
 .10068940,-0.09796390,0.00498581,-0.01165821,0.00607510,0.15131537,-0.
 08887606,0.09065427,-0.11082191,-0.01682505,0.01207640,0.00095223,0.00
 620371,-0.00102580,0.00127975,0.00111759,-0.00032090,0.00020987,-0.000
 87333,0.00055927,0.42153089,0.00290819,-0.01358710,-0.00626799,-0.0066
 2605,0.00056473,0.00027571,0.00010782,0.00046637,-0.00006296,-0.000326
 16,-0.00159588,0.00065969,-0.06176874,0.57241154,-0.00276424,-0.004223
 87,-0.01345698,-0.00115015,-0.00044948,0.00214173,0.00010980,0.0003180
 7,0.00001945,0.00022475,-0.00002254,0.00012733,0.13499733,0.20578648,0
 .22021819,-0.01107566,0.00910607,0.00083690,0.00213049,0.00041433,0.00
 000632,-0.00010624,-0.00026258,0.00002680,-0.00011057,0.00044895,-0.00
 016506,-0.15685983,0.19256087,0.00688214,0.15211506,-0.00085770,0.0035
 3505,0.00261233,-0.00031457,-0.00005584,-0.00032411,-0.00015195,0.0004
 6522,0.00000626,0.00010168,-0.00002432,0.00008580,0.16207592,-0.351841
 64,-0.05193185,-0.18025316,0.37051344,0.00426170,-0.00092885,0.0022011
 7,-0.00048131,0.00005485,-0.00011612,0.00003498,0.00008055,0.00018092,
 0.00000651,-0.00007960,0.00011386,-0.01582134,-0.01264710,-0.02775173,
 -0.00059638,0.04547068,0.02417217,-0.00970651,-0.00751454,-0.00805869,
 -0.00022249,0.00060123,0.00028707,0.00002716,-0.00005326,0.00000303,-0
 .00016984,-0.00015060,0.00008741,-0.15148107,-0.12996999,-0.13885375,0
 .01454342,0.02049180,0.01284870,0.14675593,-0.00352714,0.00529165,0.00
 003216,0.00107293,-0.00032481,-0.00002877,-0.00021708,-0.00024045,0.00
 001066,-0.00013848,0.00038983,-0.00011745,-0.09260251,-0.20246674,-0.1
 4885638,-0.02248798,-0.02339826,-0.03225347,0.11686952,0.22178240,0.00
 301744,0.00300898,0.00284068,0.00121802,-0.00028206,-0.00003914,-0.000
 10578,-0.00024340,0.00009480,-0.00000780,0.00027661,-0.00005911,-0.130
 69529,-0.18824134,-0.18215422,-0.00700081,0.00422478,0.00090030,0.1333
 4345,0.18123896,0.17840195,-0.01939968,0.00960330,0.00033684,0.0039661
 3,-0.00034233,-0.00011541,0.00045693,-0.00041467,-0.00011183,-0.000464
 65,0.00468589,0.00026403,-0.00379744,0.00345305,0.00047153,-0.00033450
 ,-0.00136310,-0.00033809,0.00083412,0.00002327,0.00039481,0.07734301,0
 .02574036,-0.02726910,0.00221454,-0.00529534,-0.01106675,0.00035239,-0
 .00178166,0.00117433,0.00055374,0.00198516,0.00011703,0.00022933,0.003
 58705,-0.00332343,-0.00072707,0.00022674,0.00099083,0.00037474,-0.0005
 5656,-0.00141683,-0.00009175,-0.02529367,0.44899227,0.00025225,-0.0002
 3953,-0.01528952,-0.00042459,0.00173265,0.00263211,0.00040465,0.000102
 88,0.00038927,0.00049233,0.00027702,-0.00255797,0.00047714,0.00043577,
 0.00146975,0.00010023,-0.00017505,0.00013391,0.00059450,-0.00020660,-0
 .00039457,-0.12444527,-0.02543698,0.63312006,0.00119921,0.00390544,-0.
 00396975,0.00026732,0.00089013,-0.00007246,0.00032435,-0.00006730,0.00
 005442,0.00032703,-0.00044667,0.00054470,-0.00063524,-0.00007012,0.000
 45290,-0.00015387,0.00007746,0.00006506,-0.00012285,0.00053542,-0.0002
 9086,-0.02922448,-0.03330900,0.05903314,0.02169562,0.00091117,-0.00313
 808,0.00424059,-0.00024579,-0.00129922,-0.00037626,-0.00033952,-0.0001
 0217,0.00009842,-0.00008125,-0.00031423,0.00059497,-0.00068169,-0.0002
 2237,-0.00012849,0.00009894,-0.00012897,-0.00007008,0.00010806,0.00022
 325,0.00011732,-0.04097676,-0.24130015,0.23140722,0.03694991,0.2334238
 4,-0.00050753,0.00332343,0.00297992,-0.00094600,-0.00184678,-0.0002175
 5,-0.00025722,0.00003557,0.00006469,0.00029510,0.00005305,0.00064368,0
 .00103600,-0.00080777,-0.00048362,0.00007155,0.00029578,0.00018613,-0.
 00038611,0.00005023,0.00011525,0.05283053,0.17220824,-0.27265297,-0.06
 209086,-0.20873565,0.30089564,0.00013316,0.00516567,0.00369026,-0.0007
 4194,0.00038443,0.00025050,0.00004580,0.00001590,-0.00004773,0.0006327
 5,-0.00099618,-0.00075328,-0.00037724,-0.00026888,-0.00037032,-0.00014
 831,0.00019362,0.00002016,-0.00045787,0.00047206,0.00012682,-0.0293794
 4,0.03469692,0.06351563,0.00632291,0.00425692,0.00995454,0.02397019,0.
 00296797,-0.00149116,-0.00560821,-0.00113224,-0.00056868,0.00086678,-0
 .00027294,-0.00013890,0.00022802,0.00010872,-0.00083186,-0.00100721,-0
 .00023295,-0.00040548,0.00023512,0.00014781,-0.00005551,-0.00000172,0.
 00017434,0.00015995,-0.00000809,0.05062502,-0.16689822,-0.20789737,-0.
 00846527,0.01285809,0.03542389,-0.04392046,0.15737177,-0.00037039,-0.0
 0271024,0.00354850,0.00130684,0.00137813,-0.00085275,0.00013474,-0.000
 14037,0.00007262,-0.00036108,-0.00020666,0.00046137,-0.00128281,0.0008
 6950,-0.00012990,-0.00016168,-0.00026460,-0.00002061,0.00013439,0.0001
 3066,0.00029406,0.07071287,-0.14967719,-0.34685008,0.00627371,-0.02714
 804,-0.03153118,-0.07638658,0.17776880,0.37500796\\0.00789798,-0.00489
 143,0.00055752,-0.00502948,0.00374696,0.01833179,0.00114149,0.00760176
 ,-0.00887007,0.00708928,-0.00793854,-0.00583437,0.00165437,0.00828189,
 -0.01787575,-0.00457162,0.00393483,0.01039667,-0.00444304,-0.01046118,
 0.00364028,-0.01642428,-0.00137722,-0.00258003,0.00411483,-0.00043101,
 0.01083023,0.00857048,0.00153395,-0.00859627\\\@


 PICNIC:  A SNACK IN THE GRASS.
 Job cpu time:       0 days  0 hours 10 minutes 13.6 seconds.
 Elapsed time:       0 days  0 hours  0 minutes 22.8 seconds.
 File lengths (MBytes):  RWF=    585 Int=      0 D2E=      0 Chk=      2 Scr=      1
 Normal termination of Gaussian 16 at Wed May 11 21:23:42 2022.
