 Entering Gaussian System, Link 0=g16
 Initial command:
 /cm/shared/apps/gaussian/intel/EM64T/SSE4_2-enabled/binary//g16/l1.exe "/scratch/florez/25750/Gau-21067.inp" -scrdir="/scratch/florez/25750/"
 Entering Link 1 = /cm/shared/apps/gaussian/intel/EM64T/SSE4_2-enabled/binary//g16/l1.exe PID=     21070.
  
 Copyright (c) 1988,1990,1992,1993,1995,1998,2003,2009,2016,
            Gaussian, Inc.  All Rights Reserved.
  
 This is part of the Gaussian(R) 16 program.  It is based on
 the Gaussian(R) 09 system (copyright 2009, Gaussian, Inc.),
 the Gaussian(R) 03 system (copyright 2003, Gaussian, Inc.),
 the Gaussian(R) 98 system (copyright 1998, Gaussian, Inc.),
 the Gaussian(R) 94 system (copyright 1995, Gaussian, Inc.),
 the Gaussian 92(TM) system (copyright 1992, Gaussian, Inc.),
 the Gaussian 90(TM) system (copyright 1990, Gaussian, Inc.),
 the Gaussian 88(TM) system (copyright 1988, Gaussian, Inc.),
 the Gaussian 86(TM) system (copyright 1986, Carnegie Mellon
 University), and the Gaussian 82(TM) system (copyright 1983,
 Carnegie Mellon University). Gaussian is a federally registered
 trademark of Gaussian, Inc.
  
 This software contains proprietary and confidential information,
 including trade secrets, belonging to Gaussian, Inc.
  
 This software is provided under written license and may be
 used, copied, transmitted, or stored only in accord with that
 written license.
  
 The following legend is applicable only to US Government
 contracts under FAR:
  
                    RESTRICTED RIGHTS LEGEND
  
 Use, reproduction and disclosure by the US Government is
 subject to restrictions as set forth in subparagraphs (a)
 and (c) of the Commercial Computer Software - Restricted
 Rights clause in FAR 52.227-19.
  
 Gaussian, Inc.
 340 Quinnipiac St., Bldg. 40, Wallingford CT 06492
  
  
 ---------------------------------------------------------------
 Warning -- This program may not be used in any manner that
 competes with the business of Gaussian, Inc. or will provide
 assistance to any competitor of Gaussian, Inc.  The licensee
 of this program is prohibited from giving any competitor of
 Gaussian, Inc. access to this program.  By using this program,
 the user acknowledges that Gaussian, Inc. is engaged in the
 business of creating and licensing software in the field of
 computational chemistry and represents and warrants to the
 licensee that it is not a competitor of Gaussian, Inc. and that
 it will not use this program in any manner prohibited above.
 ---------------------------------------------------------------
  

 Cite this work as:
 Gaussian 16, Revision A.03,
 M. J. Frisch, G. W. Trucks, H. B. Schlegel, G. E. Scuseria, 
 M. A. Robb, J. R. Cheeseman, G. Scalmani, V. Barone, 
 G. A. Petersson, H. Nakatsuji, X. Li, M. Caricato, A. V. Marenich, 
 J. Bloino, B. G. Janesko, R. Gomperts, B. Mennucci, H. P. Hratchian, 
 J. V. Ortiz, A. F. Izmaylov, J. L. Sonnenberg, D. Williams-Young, 
 F. Ding, F. Lipparini, F. Egidi, J. Goings, B. Peng, A. Petrone, 
 T. Henderson, D. Ranasinghe, V. G. Zakrzewski, J. Gao, N. Rega, 
 G. Zheng, W. Liang, M. Hada, M. Ehara, K. Toyota, R. Fukuda, 
 J. Hasegawa, M. Ishida, T. Nakajima, Y. Honda, O. Kitao, H. Nakai, 
 T. Vreven, K. Throssell, J. A. Montgomery, Jr., J. E. Peralta, 
 F. Ogliaro, M. J. Bearpark, J. J. Heyd, E. N. Brothers, K. N. Kudin, 
 V. N. Staroverov, T. A. Keith, R. Kobayashi, J. Normand, 
 K. Raghavachari, A. P. Rendell, J. C. Burant, S. S. Iyengar, 
 J. Tomasi, M. Cossi, J. M. Millam, M. Klene, C. Adamo, R. Cammi, 
 J. W. Ochterski, R. L. Martin, K. Morokuma, O. Farkas, 
 J. B. Foresman, and D. J. Fox, Gaussian, Inc., Wallingford CT, 2016.
 
 ******************************************
 Gaussian 16:  ES64L-G16RevA.03 25-Dec-2016
                11-May-2022 
 ******************************************
 %chk=w4s1.chk
 %nproc=28
 Will use up to   28 processors via shared memory.
 %mem=500gb
 ------------------------
 #p MP2(full) SDDAll freq
 ------------------------
 1/10=4,30=1,38=1/1,3;
 2/12=2,17=6,18=5,40=1/2;
 3/5=17,6=6,11=9,25=1,30=1,71=2,140=1/1,2,3;
 4//1;
 5/5=2,38=5,98=1/2;
 8/6=3,8=1,10=90,19=11/1;
 9/15=3,16=-3/6;
 11/6=1,8=1,15=11,17=11,24=-1,27=1,28=-2,29=300,32=6,42=3/1,2,10;
 10/6=2,21=1/2;
 8/6=4,8=1,10=90,19=11/11,4;
 10/5=1,20=4/2;
 11/12=2,14=11,16=1,28=-2,42=3/2,10,12;
 6/7=2,8=2,9=2,10=2/1;
 7/8=1,10=1,12=2,25=1,44=2/1,2,3,16;
 1/10=4,30=1/3;
 99//99;
 Leave Link    1 at Wed May 11 21:24:05 2022, MaxMem= 67108864000 cpu:               1.0 elap:               0.0
 (Enter /cm/shared/apps/gaussian/intel/EM64T/SSE4_2-enabled/binary//g16/l101.exe)
 ----------------------------------------------------------------------
 file 'w4s1.log' Now we use Def2-QZVPPD, but it was opt at: ---' #p ZOR
 A-SR+SO PBE QZ4P'---
 ----------------------------------------------------------------------
 Symbolic Z-matrix:
 Charge =  2 Multiplicity = 1
 Hg(Fragment=1)       -0.28617  -0.29363  -0.03662 
 H(Fragment=2)         3.53965  -2.90499  -0.05306 
 O(Fragment=2)         3.25186  -2.11522   0.44724 
 H(Fragment=2)         4.04532  -1.65187   0.78256 
 H(Fragment=2)        -3.26548  -0.15209   0.02307 
 O(Fragment=2)        -2.15642   0.08      0.57631 
 H(Fragment=2)        -2.19195   0.74786   1.28652 
 H(Fragment=2)        -4.78319   0.33401  -0.85194 
 O(Fragment=2)        -4.26472  -0.42283  -0.51271 
 H(Fragment=2)        -4.86259  -1.00967  -0.00771 
 H(Fragment=2)         1.88109  -0.17867  -1.36224 
 O(Fragment=2)         1.56247  -0.76325  -0.64919 
 H(Fragment=2)         2.46502  -1.44537  -0.09234 
 
 ITRead=  0  0  0  0  0  0  0  0  0  0  0  0  0
 MicOpt= -1 -1 -1 -1 -1 -1 -1 -1 -1 -1 -1 -1 -1
 NAtoms=     13 NQM=       13 NQMF=       0 NMMI=      0 NMMIF=      0
                NMic=       0 NMicF=      0.
                    Isotopes and Nuclear Properties:
 (Nuclear quadrupole moments (NQMom) in fm**2, nuclear magnetic moments (NMagM)
  in nuclear magnetons)

  Atom         1           2           3           4           5           6           7           8           9          10
 IAtWgt=         202           1          16           1           1          16           1           1          16           1
 AtmWgt= 201.9706000   1.0078250  15.9949146   1.0078250   1.0078250  15.9949146   1.0078250   1.0078250  15.9949146   1.0078250
 NucSpn=           0           1           0           1           1           0           1           1           0           1
 AtZEff=  -0.0000000  -0.0000000  -0.0000000  -0.0000000  -0.0000000  -0.0000000  -0.0000000  -0.0000000  -0.0000000  -0.0000000
 NQMom=    0.0000000   0.0000000   0.0000000   0.0000000   0.0000000   0.0000000   0.0000000   0.0000000   0.0000000   0.0000000
 NMagM=    0.0000000   2.7928460   0.0000000   2.7928460   2.7928460   0.0000000   2.7928460   2.7928460   0.0000000   2.7928460
 AtZNuc=  80.0000000   1.0000000   8.0000000   1.0000000   1.0000000   8.0000000   1.0000000   1.0000000   8.0000000   1.0000000

  Atom        11          12          13
 IAtWgt=           1          16           1
 AtmWgt=   1.0078250  15.9949146   1.0078250
 NucSpn=           1           0           1
 AtZEff=  -0.0000000  -0.0000000  -0.0000000
 NQMom=    0.0000000   0.0000000   0.0000000
 NMagM=    2.7928460   0.0000000   2.7928460
 AtZNuc=   1.0000000   8.0000000   1.0000000
 Leave Link  101 at Wed May 11 21:24:05 2022, MaxMem= 67108864000 cpu:               2.4 elap:               0.1
 (Enter /cm/shared/apps/gaussian/intel/EM64T/SSE4_2-enabled/binary//g16/l103.exe)

 GradGradGradGradGradGradGradGradGradGradGradGradGradGradGradGradGradGrad
 Berny optimization.
 Initialization pass.
 Trust Radius=3.00D-01 FncErr=1.00D-07 GrdErr=1.00D-07 EigMax=2.50D+02 EigMin=1.00D-04
 Number of steps in this run=      2 maximum allowed number of steps=      2.
 GradGradGradGradGradGradGradGradGradGradGradGradGradGradGradGradGradGrad

 Leave Link  103 at Wed May 11 21:24:06 2022, MaxMem= 67108864000 cpu:               0.7 elap:               0.0
 (Enter /cm/shared/apps/gaussian/intel/EM64T/SSE4_2-enabled/binary//g16/l202.exe)
                          Input orientation:                          
 ---------------------------------------------------------------------
 Center     Atomic      Atomic             Coordinates (Angstroms)
 Number     Number       Type             X           Y           Z
 ---------------------------------------------------------------------
      1         80           0       -0.286169   -0.293626   -0.036618
      2          1           0        3.539651   -2.904989   -0.053060
      3          8           0        3.251857   -2.115220    0.447235
      4          1           0        4.045323   -1.651867    0.782561
      5          1           0       -3.265482   -0.152087    0.023069
      6          8           0       -2.156423    0.080004    0.576310
      7          1           0       -2.191949    0.747856    1.286524
      8          1           0       -4.783189    0.334006   -0.851940
      9          8           0       -4.264716   -0.422834   -0.512710
     10          1           0       -4.862585   -1.009673   -0.007713
     11          1           0        1.881093   -0.178666   -1.362240
     12          8           0        1.562471   -0.763246   -0.649191
     13          1           0        2.465021   -1.445369   -0.092343
 ---------------------------------------------------------------------
                    Distance matrix (angstroms):
                    1          2          3          4          5
     1  Hg   0.000000
     2  H    4.632104   0.000000
     3  O    4.008734   0.978190   0.000000
     4  H    4.612775   1.588799   0.978125   0.000000
     5  H    2.983270   7.341260   6.819789   7.501602   0.000000
     6  O    2.003280   6.461544   5.838250   6.442326   1.260934
     7  H    2.543106   6.927409   6.207788   6.701956   1.886449
     8  H    4.613227   8.966547   8.499913   9.195537   1.818065
     9  O    4.009014   8.202470   7.764312   8.499706   1.165689
    10  H    4.632185   8.613469   8.202035   8.965923   1.813047
    11  H    2.543131   3.449290   2.983862   3.384433   5.329824
    12  O    2.003312   2.975177   2.425698   3.000686   4.912696
    13  H    2.983063   1.812971   1.165743   1.818090   5.875761
                    6          7          8          9         10
     6  O    0.000000
     7  H    0.975547   0.000000
     8  H    3.000719   3.385089   0.000000
     9  O    2.425636   2.983977   0.978109   0.000000
    10  H    2.975196   3.449095   1.588866   0.978187   0.000000
    11  H    4.486248   4.946116   6.703424   6.209049   6.928384
    12  O    4.005383   4.486211   6.443017   5.838717   6.461700
    13  H    4.912393   5.329060   7.501980   6.819945   7.341036
                   11         12         13
    11  H    0.000000
    12  O    0.975547   0.000000
    13  H    1.886305   1.260939   0.000000
 Stoichiometry    H8HgO4(2+)
 Framework group  C1[X(H8HgO4)]
 Deg. of freedom    33
 Full point group                 C1      NOp   1
 Largest Abelian subgroup         C1      NOp   1
 Largest concise Abelian subgroup C1      NOp   1
                         Standard orientation:                         
 ---------------------------------------------------------------------
 Center     Atomic      Atomic             Coordinates (Angstroms)
 Number     Number       Type             X           Y           Z
 ---------------------------------------------------------------------
      1         80           0       -0.000028   -0.173307    0.000180
      2          1           0       -4.303830    1.531863   -0.161281
      3          8           0       -3.865460    0.827324    0.356708
      4          1           0       -4.547874    0.202385    0.673712
      5          1           0        2.934095    0.344657    0.150317
      6          8           0        1.886227   -0.123060    0.672972
      7          1           0        2.045176   -0.763141    1.391806
      8          1           0        4.548479    0.200136   -0.673235
      9          8           0        3.865829    0.825998   -0.358617
     10          1           0        4.303758    1.532562    0.156974
     11          1           0       -2.045881   -0.769105   -1.387992
     12          8           0       -1.886321   -0.125160   -0.672752
     13          1           0       -2.933925    0.344377   -0.151189
 ---------------------------------------------------------------------
 Rotational constants (GHZ):           8.7473643           0.7017710           0.6913796
 Leave Link  202 at Wed May 11 21:24:06 2022, MaxMem= 67108864000 cpu:               0.7 elap:               0.0
 (Enter /cm/shared/apps/gaussian/intel/EM64T/SSE4_2-enabled/binary//g16/l301.exe)
 Standard basis: SDDAll (6D, 10F)
 Ernie: Thresh=  0.10000D-02 Tol=  0.10000D-05 Strict=F.
 There are    99 symmetry adapted cartesian basis functions of A   symmetry.
 There are    99 symmetry adapted basis functions of A   symmetry.
    99 basis functions,   173 primitive gaussians,    99 cartesian basis functions
    25 alpha electrons       25 beta electrons
       nuclear repulsion energy       197.8452396170 Hartrees.
 IExCor=    0 DFT=F Ex=HF Corr=None ExCW=0 ScaHFX=  1.000000
 ScaDFX=  1.000000  1.000000  1.000000  1.000000 ScalE2=  1.000000  1.000000
 IRadAn=      5 IRanWt=     -1 IRanGd=            0 ICorTp=0 IEmpDi=  4
 NAtoms=   13 NActive=   13 NUniq=   13 SFac= 1.00D+00 NAtFMM=   60 NAOKFM=F Big=F
 Integral buffers will be    131072 words long.
 Raffenetti 1 integral format.
 Two-electron integral symmetry is turned on.
 Leave Link  301 at Wed May 11 21:24:06 2022, MaxMem= 67108864000 cpu:               1.8 elap:               0.1
 (Enter /cm/shared/apps/gaussian/intel/EM64T/SSE4_2-enabled/binary//g16/l302.exe)
 NPDir=0 NMtPBC=     1 NCelOv=     1 NCel=       1 NClECP=     1 NCelD=      1
         NCelK=      1 NCelE2=     1 NClLst=     1 CellRange=     0.0.
 One-electron integrals computed using PRISM.
 One-electron integral symmetry used in STVInt
   1 Symmetry operations used in ECPInt.
 ECPInt:  NShTT=    1275 NPrTT=    4064 LenC2=    1244 LenP2D=    3214.
 LDataN:  DoStor=T MaxTD1= 7 Len=  274
 NBasis=    99 RedAO= T EigKep=  3.87D-04  NBF=    99
 NBsUse=    99 1.00D-06 EigRej= -1.00D+00 NBFU=    99
 Leave Link  302 at Wed May 11 21:24:06 2022, MaxMem= 67108864000 cpu:               6.2 elap:               0.2
 (Enter /cm/shared/apps/gaussian/intel/EM64T/SSE4_2-enabled/binary//g16/l303.exe)
 DipDrv:  MaxL=1.
 Leave Link  303 at Wed May 11 21:24:06 2022, MaxMem= 67108864000 cpu:               0.8 elap:               0.1
 (Enter /cm/shared/apps/gaussian/intel/EM64T/SSE4_2-enabled/binary//g16/l401.exe)
 ExpMin= 2.00D-02 ExpMax= 4.71D+01 ExpMxC= 4.71D+01 IAcc=3 IRadAn=         5 AccDes= 0.00D+00
 Harris functional with IExCor=  205 and IRadAn=       5 diagonalized for initial guess.
 HarFok:  IExCor=  205 AccDes= 0.00D+00 IRadAn=         5 IDoV= 1 UseB2=F ITyADJ=14
 ICtDFT=  3500011 ScaDFX=  1.000000  1.000000  1.000000  1.000000
 Defaulting to unpruned grid for atomic number  80.
 FoFCou: FMM=F IPFlag=           0 FMFlag=      100000 FMFlg1=           0
         NFxFlg=           0 DoJE=T BraDBF=F KetDBF=T FulRan=T
         wScrn=  0.000000 ICntrl=       500 IOpCl=  0 I1Cent=   200000004 NGrid=           0
         NMat0=    1 NMatS0=      1 NMatT0=    0 NMatD0=    1 NMtDS0=    0 NMtDT0=    0
 Petite list used in FoFCou.
 Harris En= -222.494294898903    
 JPrj=0 DoOrth=F DoCkMO=F.
 Leave Link  401 at Wed May 11 21:24:06 2022, MaxMem= 67108864000 cpu:               7.4 elap:               0.3
 (Enter /cm/shared/apps/gaussian/intel/EM64T/SSE4_2-enabled/binary//g16/l502.exe)
 Integral symmetry usage will be decided dynamically.
 Closed shell SCF:
 Using DIIS extrapolation, IDIIS=  1040.
 NGot= 67108864000 LenX= 67108840360 LenY= 67108830118
 Requested convergence on RMS density matrix=1.00D-08 within 128 cycles.
 Requested convergence on MAX density matrix=1.00D-06.
 Requested convergence on             energy=1.00D-06.
 No special actions if energy rises.
 Fock matrices will be formed incrementally for  20 cycles.

 Cycle   1  Pass 0  IDiag  1:
 FoFJK:  IHMeth= 1 ICntrl=       0 DoSepK=F KAlg= 0 I1Cent=           0 FoldK=F
 IRaf= 940000000 NMat=       1 IRICut=       1 DoRegI=T DoRafI=F ISym2E= 0 IDoP0=0 IntGTp=1.
 FoFCou: FMM=F IPFlag=           0 FMFlag=      100000 FMFlg1=           0
         NFxFlg=           0 DoJE=F BraDBF=F KetDBF=F FulRan=T
         wScrn=  0.000000 ICntrl=         0 IOpCl=  0 I1Cent=           0 NGrid=           0
         NMat0=    1 NMatS0=      1 NMatT0=    0 NMatD0=    1 NMtDS0=    0 NMtDT0=    0
 Symmetry not used in FoFCou.
 E= -219.147813699113    
 DIIS: error= 4.99D-02 at cycle   1 NSaved=   1.
 NSaved= 1 IEnMin= 1 EnMin= -219.147813699113     IErMin= 1 ErrMin= 4.99D-02
 ErrMax= 4.99D-02  0.00D+00 EMaxC= 1.00D-01 BMatC= 5.01D-01 BMatP= 5.01D-01
 IDIUse=3 WtCom= 5.01D-01 WtEn= 4.99D-01
 Coeff-Com:  0.100D+01
 Coeff-En:   0.100D+01
 Coeff:      0.100D+01
 Gap=     0.687 Goal=   None    Shift=    0.000
 GapD=    0.687 DampG=2.000 DampE=0.250 DampFc=0.5000 IDamp=-1.
 Damping current iteration by 5.00D-01
 RMSDP=9.79D-03 MaxDP=2.44D-01              OVMax= 2.37D-01

 Cycle   2  Pass 0  IDiag  1:
 RMSU=  4.81D-03    CP:  1.02D+00
 E= -219.367092713858     Delta-E=       -0.219279014745 Rises=F Damp=T
 DIIS: error= 1.31D-02 at cycle   2 NSaved=   2.
 NSaved= 2 IEnMin= 2 EnMin= -219.367092713858     IErMin= 2 ErrMin= 1.31D-02
 ErrMax= 1.31D-02  0.00D+00 EMaxC= 1.00D-01 BMatC= 3.21D-02 BMatP= 5.01D-01
 IDIUse=3 WtCom= 8.69D-01 WtEn= 1.31D-01
 Coeff-Com: -0.228D+00 0.123D+01
 Coeff-En:   0.000D+00 0.100D+01
 Coeff:     -0.199D+00 0.120D+01
 Gap=     0.587 Goal=   None    Shift=    0.000
 RMSDP=3.10D-03 MaxDP=6.66D-02 DE=-2.19D-01 OVMax= 7.47D-02

 Cycle   3  Pass 0  IDiag  1:
 RMSU=  2.72D-03    CP:  1.02D+00  1.30D+00
 E= -219.553523348224     Delta-E=       -0.186430634366 Rises=F Damp=F
 DIIS: error= 4.66D-03 at cycle   3 NSaved=   3.
 NSaved= 3 IEnMin= 3 EnMin= -219.553523348224     IErMin= 3 ErrMin= 4.66D-03
 ErrMax= 4.66D-03  0.00D+00 EMaxC= 1.00D-01 BMatC= 3.24D-03 BMatP= 3.21D-02
 IDIUse=3 WtCom= 9.53D-01 WtEn= 4.66D-02
 Coeff-Com:  0.574D-01-0.153D+00 0.110D+01
 Coeff-En:   0.000D+00 0.000D+00 0.100D+01
 Coeff:      0.547D-01-0.146D+00 0.109D+01
 Gap=     0.572 Goal=   None    Shift=    0.000
 RMSDP=1.26D-03 MaxDP=3.43D-02 DE=-1.86D-01 OVMax= 2.52D-02

 Cycle   4  Pass 0  IDiag  1:
 RMSU=  6.42D-04    CP:  1.01D+00  1.23D+00  1.35D+00
 E= -219.557191708285     Delta-E=       -0.003668360061 Rises=F Damp=F
 DIIS: error= 1.95D-03 at cycle   4 NSaved=   4.
 NSaved= 4 IEnMin= 4 EnMin= -219.557191708285     IErMin= 4 ErrMin= 1.95D-03
 ErrMax= 1.95D-03  0.00D+00 EMaxC= 1.00D-01 BMatC= 5.35D-04 BMatP= 3.24D-03
 IDIUse=3 WtCom= 9.81D-01 WtEn= 1.95D-02
 Coeff-Com:  0.389D-01-0.156D+00 0.332D+00 0.785D+00
 Coeff-En:   0.000D+00 0.000D+00 0.000D+00 0.100D+01
 Coeff:      0.382D-01-0.153D+00 0.326D+00 0.789D+00
 Gap=     0.574 Goal=   None    Shift=    0.000
 RMSDP=4.38D-04 MaxDP=9.71D-03 DE=-3.67D-03 OVMax= 1.42D-02

 Cycle   5  Pass 0  IDiag  1:
 RMSU=  2.50D-04    CP:  1.00D+00  1.23D+00  1.47D+00  1.12D+00
 E= -219.558043496116     Delta-E=       -0.000851787831 Rises=F Damp=F
 DIIS: error= 6.14D-04 at cycle   5 NSaved=   5.
 NSaved= 5 IEnMin= 5 EnMin= -219.558043496116     IErMin= 5 ErrMin= 6.14D-04
 ErrMax= 6.14D-04  0.00D+00 EMaxC= 1.00D-01 BMatC= 4.37D-05 BMatP= 5.35D-04
 IDIUse=3 WtCom= 9.94D-01 WtEn= 6.14D-03
 Coeff-Com: -0.240D-01 0.792D-01-0.202D+00-0.250D+00 0.140D+01
 Coeff-En:   0.000D+00 0.000D+00 0.000D+00 0.000D+00 0.100D+01
 Coeff:     -0.238D-01 0.787D-01-0.201D+00-0.249D+00 0.139D+01
 Gap=     0.571 Goal=   None    Shift=    0.000
 RMSDP=2.65D-04 MaxDP=5.37D-03 DE=-8.52D-04 OVMax= 7.21D-03

 Cycle   6  Pass 0  IDiag  1:
 RMSU=  7.63D-05    CP:  1.00D+00  1.24D+00  1.54D+00  1.32D+00  1.50D+00
 E= -219.558205979569     Delta-E=       -0.000162483453 Rises=F Damp=F
 DIIS: error= 2.08D-04 at cycle   6 NSaved=   6.
 NSaved= 6 IEnMin= 6 EnMin= -219.558205979569     IErMin= 6 ErrMin= 2.08D-04
 ErrMax= 2.08D-04  0.00D+00 EMaxC= 1.00D-01 BMatC= 7.73D-06 BMatP= 4.37D-05
 IDIUse=3 WtCom= 9.98D-01 WtEn= 2.08D-03
 Coeff-Com: -0.813D-02 0.305D-01-0.944D-01-0.126D+00 0.361D+00 0.837D+00
 Coeff-En:   0.000D+00 0.000D+00 0.000D+00 0.000D+00 0.000D+00 0.100D+01
 Coeff:     -0.811D-02 0.304D-01-0.942D-01-0.126D+00 0.360D+00 0.837D+00
 Gap=     0.570 Goal=   None    Shift=    0.000
 RMSDP=7.56D-05 MaxDP=1.57D-03 DE=-1.62D-04 OVMax= 1.82D-03

 Cycle   7  Pass 0  IDiag  1:
 RMSU=  1.84D-05    CP:  1.00D+00  1.24D+00  1.56D+00  1.37D+00  1.62D+00
                    CP:  1.23D+00
 E= -219.558219315759     Delta-E=       -0.000013336190 Rises=F Damp=F
 DIIS: error= 5.18D-05 at cycle   7 NSaved=   7.
 NSaved= 7 IEnMin= 7 EnMin= -219.558219315759     IErMin= 7 ErrMin= 5.18D-05
 ErrMax= 5.18D-05  0.00D+00 EMaxC= 1.00D-01 BMatC= 5.81D-07 BMatP= 7.73D-06
 IDIUse=1 WtCom= 1.00D+00 WtEn= 0.00D+00
 Coeff-Com:  0.316D-02-0.800D-02 0.174D-01 0.271D-01-0.165D+00 0.135D-01
 Coeff-Com:  0.111D+01
 Coeff:      0.316D-02-0.800D-02 0.174D-01 0.271D-01-0.165D+00 0.135D-01
 Coeff:      0.111D+01
 Gap=     0.570 Goal=   None    Shift=    0.000
 RMSDP=2.37D-05 MaxDP=4.25D-04 DE=-1.33D-05 OVMax= 5.47D-04

 Cycle   8  Pass 0  IDiag  1:
 RMSU=  5.79D-06    CP:  1.00D+00  1.24D+00  1.56D+00  1.39D+00  1.66D+00
                    CP:  1.37D+00  1.23D+00
 E= -219.558220379652     Delta-E=       -0.000001063893 Rises=F Damp=F
 DIIS: error= 8.91D-06 at cycle   8 NSaved=   8.
 NSaved= 8 IEnMin= 8 EnMin= -219.558220379652     IErMin= 8 ErrMin= 8.91D-06
 ErrMax= 8.91D-06  0.00D+00 EMaxC= 1.00D-01 BMatC= 1.46D-08 BMatP= 5.81D-07
 IDIUse=1 WtCom= 1.00D+00 WtEn= 0.00D+00
 Coeff-Com: -0.615D-03 0.123D-02-0.475D-03-0.432D-02 0.315D-01-0.159D-01
 Coeff-Com: -0.283D+00 0.127D+01
 Coeff:     -0.615D-03 0.123D-02-0.475D-03-0.432D-02 0.315D-01-0.159D-01
 Coeff:     -0.283D+00 0.127D+01
 Gap=     0.570 Goal=   None    Shift=    0.000
 RMSDP=2.99D-06 MaxDP=5.61D-05 DE=-1.06D-06 OVMax= 5.55D-05

 Initial convergence to 1.0D-05 achieved.  Increase integral accuracy.
 Cycle   9  Pass 1  IDiag  1:
 E= -219.558220406674     Delta-E=       -0.000000027022 Rises=F Damp=F
 DIIS: error= 2.00D-06 at cycle   1 NSaved=   1.
 NSaved= 1 IEnMin= 1 EnMin= -219.558220406674     IErMin= 1 ErrMin= 2.00D-06
 ErrMax= 2.00D-06  0.00D+00 EMaxC= 1.00D-01 BMatC= 5.64D-10 BMatP= 5.64D-10
 IDIUse=1 WtCom= 1.00D+00 WtEn= 0.00D+00
 Coeff-Com:  0.100D+01
 Coeff:      0.100D+01
 Gap=     0.570 Goal=   None    Shift=    0.000
 RMSDP=2.99D-06 MaxDP=5.61D-05 DE=-2.70D-08 OVMax= 9.91D-06

 Cycle  10  Pass 1  IDiag  1:
 RMSU=  4.48D-07    CP:  1.00D+00
 E= -219.558220407809     Delta-E=       -0.000000001135 Rises=F Damp=F
 DIIS: error= 7.38D-07 at cycle   2 NSaved=   2.
 NSaved= 2 IEnMin= 2 EnMin= -219.558220407809     IErMin= 2 ErrMin= 7.38D-07
 ErrMax= 7.38D-07  0.00D+00 EMaxC= 1.00D-01 BMatC= 9.61D-11 BMatP= 5.64D-10
 IDIUse=1 WtCom= 1.00D+00 WtEn= 0.00D+00
 Coeff-Com: -0.968D-01 0.110D+01
 Coeff:     -0.968D-01 0.110D+01
 Gap=     0.570 Goal=   None    Shift=    0.000
 RMSDP=1.93D-07 MaxDP=4.28D-06 DE=-1.13D-09 OVMax= 5.66D-06

 Cycle  11  Pass 1  IDiag  1:
 RMSU=  1.30D-07    CP:  1.00D+00  1.32D+00
 E= -219.558220408060     Delta-E=       -0.000000000250 Rises=F Damp=F
 DIIS: error= 4.54D-07 at cycle   3 NSaved=   3.
 NSaved= 3 IEnMin= 3 EnMin= -219.558220408060     IErMin= 3 ErrMin= 4.54D-07
 ErrMax= 4.54D-07  0.00D+00 EMaxC= 1.00D-01 BMatC= 2.61D-11 BMatP= 9.61D-11
 IDIUse=1 WtCom= 1.00D+00 WtEn= 0.00D+00
 Coeff-Com: -0.247D+00 0.151D+00 0.110D+01
 Coeff:     -0.247D+00 0.151D+00 0.110D+01
 Gap=     0.570 Goal=   None    Shift=    0.000
 RMSDP=1.26D-07 MaxDP=2.85D-06 DE=-2.50D-10 OVMax= 3.62D-06

 Cycle  12  Pass 1  IDiag  1:
 RMSU=  3.89D-08    CP:  1.00D+00  1.57D+00  1.28D+00
 E= -219.558220408114     Delta-E=       -0.000000000055 Rises=F Damp=F
 DIIS: error= 8.25D-08 at cycle   4 NSaved=   4.
 NSaved= 4 IEnMin= 4 EnMin= -219.558220408114     IErMin= 4 ErrMin= 8.25D-08
 ErrMax= 8.25D-08  0.00D+00 EMaxC= 1.00D-01 BMatC= 8.66D-13 BMatP= 2.61D-11
 IDIUse=1 WtCom= 1.00D+00 WtEn= 0.00D+00
 Coeff-Com: -0.200D-01-0.308D-01 0.123D+00 0.928D+00
 Coeff:     -0.200D-01-0.308D-01 0.123D+00 0.928D+00
 Gap=     0.570 Goal=   None    Shift=    0.000
 RMSDP=1.96D-08 MaxDP=4.60D-07 DE=-5.47D-11 OVMax= 5.43D-07

 Cycle  13  Pass 1  IDiag  1:
 RMSU=  9.70D-09    CP:  1.00D+00  1.58D+00  1.36D+00  1.28D+00
 E= -219.558220408123     Delta-E=       -0.000000000008 Rises=F Damp=F
 DIIS: error= 2.80D-08 at cycle   5 NSaved=   5.
 NSaved= 5 IEnMin= 5 EnMin= -219.558220408123     IErMin= 5 ErrMin= 2.80D-08
 ErrMax= 2.80D-08  0.00D+00 EMaxC= 1.00D-01 BMatC= 1.67D-13 BMatP= 8.66D-13
 IDIUse=1 WtCom= 1.00D+00 WtEn= 0.00D+00
 Coeff-Com:  0.471D-01-0.381D-01-0.197D+00 0.204D+00 0.985D+00
 Coeff:      0.471D-01-0.381D-01-0.197D+00 0.204D+00 0.985D+00
 Gap=     0.570 Goal=   None    Shift=    0.000
 RMSDP=9.58D-09 MaxDP=2.42D-07 DE=-8.36D-12 OVMax= 2.59D-07

 SCF Done:  E(RHF) =  -219.558220408     A.U. after   13 cycles
            NFock= 13  Conv=0.96D-08     -V/T= 3.0926
 KE= 1.049232181520D+02 PE=-8.613219980058D+02 EE= 3.389953198286D+02
 Leave Link  502 at Wed May 11 21:24:08 2022, MaxMem= 67108864000 cpu:              47.1 elap:               1.7
 (Enter /cm/shared/apps/gaussian/intel/EM64T/SSE4_2-enabled/binary//g16/l801.exe)
 Range of M.O.s used for correlation:     1    99
 NBasis=    99 NAE=    25 NBE=    25 NFC=     0 NFV=     0
 NROrb=     99 NOA=    25 NOB=    25 NVA=    74 NVB=    74

 **** Warning!!: The largest alpha MO coefficient is  0.28642055D+02

 Leave Link  801 at Wed May 11 21:24:08 2022, MaxMem= 67108864000 cpu:               1.2 elap:               0.1
 (Enter /cm/shared/apps/gaussian/intel/EM64T/SSE4_2-enabled/binary//g16/l906.exe)
 FulOut=F Deriv=T AODrv=T NAtomX=    13
   MMem=           0  MDisk=          25 MDiskD=          25
  W3Min=      245025 MinDsk=      763097 NBas6D=          99
 NBas2D=        5046    NTT=        4950    LW2=     3308096
    MDV= 67108724096 MDiskM=     9414523 NBas2p=        4848
 Disk-based method using ON**2 memory for 25 occupieds at a time.
 Permanent disk used for amplitudes=     4232800 words.
 Estimated scratch disk usage=    46205392 words.
 IMap=   1   2   3   4   5   6   7   8   9  10  11  12  13  14  15  16  17  18  19  20
 IMap=  21  22  23  24  25
 Actual    scratch disk usage=    42293712 words.
 JobTyp=1 Pass  1:  I=   1 to  25 NPSUse= 28 ParTrn=T ParDer=T DoDerP=T.
 (rs|ai) integrals will be sorted in core.
 Spin components of T(2) and E(2):
     alpha-alpha T2 =       0.2626141341D-01 E2=     -0.8459411119D-01
     alpha-beta  T2 =       0.1501676651D+00 E2=     -0.4881505729D+00
     beta-beta   T2 =       0.2626141341D-01 E2=     -0.8459411119D-01
 The integrals were generated   1 times.
 ANorm=    0.1096672463D+01
 E2 =    -0.6573387952D+00 EUMP2 =    -0.22021555920336D+03
 Leave Link  906 at Wed May 11 21:24:14 2022, MaxMem= 67108864000 cpu:             162.3 elap:               5.8
 (Enter /cm/shared/apps/gaussian/intel/EM64T/SSE4_2-enabled/binary//g16/l1101.exe)
 Using compressed Sx but separate Hx and Fx, NAtomX=    13.
 Will process     14 centers per pass.
   1 Symmetry operations used in ECPInt.
 ECPInt:  NShTT=    1275 NPrTT=    4064 LenC2=    1244 LenP2D=    3214.
 LDataN:  DoStor=T MaxTD1= 8 Len=  415
 Leave Link 1101 at Wed May 11 21:24:14 2022, MaxMem= 67108864000 cpu:              10.9 elap:               0.4
 (Enter /cm/shared/apps/gaussian/intel/EM64T/SSE4_2-enabled/binary//g16/l1102.exe)
 Leave Link 1102 at Wed May 11 21:24:14 2022, MaxMem= 67108864000 cpu:               0.6 elap:               0.0
 (Enter /cm/shared/apps/gaussian/intel/EM64T/SSE4_2-enabled/binary//g16/l1110.exe)
 Forming Gx(P) for the SCF density, NAtomX=    13.
 Integral derivatives from FoFJK, PRISM(SPDF).
 Do as many integral derivatives as possible in FoFJK.
 G2DrvN: MDV=   67108862980.
 G2DrvN: will do    14 centers at a time, making    1 passes.
 Calling FoFCou, ICntrl=  3107 FMM=F I1Cent=   0 AccDes= 0.00D+00.
 FoFJK:  IHMeth= 1 ICntrl=    3107 DoSepK=F KAlg= 0 I1Cent=           0 FoldK=F
 IRaf=         0 NMat=       1 IRICut=       1 DoRegI=T DoRafI=F ISym2E= 0 IDoP0=0 IntGTp=1.
 FoFCou: FMM=F IPFlag=           0 FMFlag=      100000 FMFlg1=           0
         NFxFlg=           0 DoJE=F BraDBF=F KetDBF=F FulRan=T
         wScrn=  0.000000 ICntrl=      3107 IOpCl=  0 I1Cent=           0 NGrid=           0
         NMat0=    1 NMatS0=      1 NMatT0=    0 NMatD0=    1 NMtDS0=    0 NMtDT0=    0
 Symmetry not used in FoFCou.
 End of G2Drv F.D. properties file   721 does not exist.
 End of G2Drv F.D. properties file   722 does not exist.
 End of G2Drv F.D. properties file   788 does not exist.
 Leave Link 1110 at Wed May 11 21:24:15 2022, MaxMem= 67108864000 cpu:               8.9 elap:               0.3
 (Enter /cm/shared/apps/gaussian/intel/EM64T/SSE4_2-enabled/binary//g16/l1002.exe)
 Minotr:  Closed shell wavefunction.
          IDoAtm=1111111111111
          Direct CPHF calculation.
          Differentiating once with respect to electric field.
                with respect to dipole field.
          Differentiating once with respect to nuclear coordinates.
          Requested convergence is 1.0D-08 RMS, and 1.0D-07 maximum.
          Secondary convergence is 1.0D-12 RMS, and 1.0D-12 maximum.
          NewPWx=T KeepS1=T KeepF1=T KeepIn=T MapXYZ=F SortEE=F KeepMc=T.
 Keep R1 ints in memory in canonical form, NReq=18145283.
 FoFCou: FMM=F IPFlag=           0 FMFlag=           0 FMFlg1=           0
         NFxFlg=           0 DoJE=F BraDBF=F KetDBF=F FulRan=T
         wScrn=  0.000000 ICntrl=       600 IOpCl=  0 I1Cent=           0 NGrid=           0
         NMat0=    1 NMatS0=   4950 NMatT0=    0 NMatD0=    1 NMtDS0=    0 NMtDT0=    0
 Symmetry not used in FoFCou.
 Two-electron integral symmetry not used.
          MDV=   67108864000 using IRadAn=       1.
          Solving linear equations simultaneously, MaxMat=       0.
          There are    42 degrees of freedom in the 1st order CPHF.  IDoFFX=6 NUNeed=    42.
     39 vectors produced by pass  0 Test12= 4.40D-15 2.38D-09 XBig12= 1.08D+01 1.71D+00.
 AX will form    39 AO Fock derivatives at one time.
     39 vectors produced by pass  1 Test12= 4.40D-15 2.38D-09 XBig12= 1.76D-01 8.13D-02.
     39 vectors produced by pass  2 Test12= 4.40D-15 2.38D-09 XBig12= 2.59D-03 1.09D-02.
     39 vectors produced by pass  3 Test12= 4.40D-15 2.38D-09 XBig12= 1.50D-05 7.92D-04.
     39 vectors produced by pass  4 Test12= 4.40D-15 2.38D-09 XBig12= 1.07D-07 1.08D-04.
     39 vectors produced by pass  5 Test12= 4.40D-15 2.38D-09 XBig12= 7.69D-10 5.79D-06.
     21 vectors produced by pass  6 Test12= 4.40D-15 2.38D-09 XBig12= 4.85D-12 3.94D-07.
      3 vectors produced by pass  7 Test12= 4.40D-15 2.38D-09 XBig12= 2.79D-14 2.87D-08.
 InvSVY:  IOpt=1 It=  1 EMax= 1.33D-15
 Solved reduced A of dimension   258 with    42 vectors.
 FullF1:  Do perturbations      1 to      42.
 Saving first derivative matrices.
 End of Minotr F.D. properties file   721 does not exist.
 End of Minotr F.D. properties file   722 does not exist.
 End of Minotr F.D. properties file   788 does not exist.
 Leave Link 1002 at Wed May 11 21:24:16 2022, MaxMem= 67108864000 cpu:              20.8 elap:               0.8
 (Enter /cm/shared/apps/gaussian/intel/EM64T/SSE4_2-enabled/binary//g16/l811.exe)
 MDV= 67108864000.
 Form MO integral derivatives with frozen-active canonical formalism.
 MOERI=1 MOERIx=1 NAtoms=    13 NAtomX=    13.
 Discarding MO integrals.
 MO basis two electron integral derivatives will not be stored on disk.
 IAlg= 3 DoFC=T DoPWx=T Debug=F.
 Reordered first order wavefunction length =      6845000
 In DefCFB: NBatch=  1 ICI= 25 ICA= 74 LFMax= 74
            Large arrays: LIAPS=    72527400 LIARS=    49999950 words.
 In StABat: MaxSiz= 39 MinSiz= 22 NAtomB=  3
 DoIAMN: NPSUse= 28.
 Leave Link  811 at Wed May 11 21:24:28 2022, MaxMem= 67108864000 cpu:             358.4 elap:              12.8
 (Enter /cm/shared/apps/gaussian/intel/EM64T/SSE4_2-enabled/binary//g16/l804.exe)
 Closed-shell transformation, MDV= 67108864000 ITran=4 ISComp=1.
 Semi-Direct transformation.
 ModeAB=           4 MOrb=            25 LenV=   67108489196
 LASXX=      9829800 LTotXX=     9829800 LenRXX=    19994800
 LTotAB=    10165000 MaxLAS=    11922075 LenRXY=           0
 NonZer=    29824600 LenScr=    45494272 LnRSAI=    11922075
 LnScr1=    18653184 LExtra=           0 Total=     96064331
 MaxDsk=          -1 SrtSym=           T ITran=            4
 DoSDTr:  NPSUse= 28
 JobTyp=0 Pass  1:  I=   1 to  25.
 (rs|ai) integrals will be sorted in core.
 Complete sort for first half transformation.
 First half transformation complete.
 Begin second half transformation for I=  10.
 Begin second half transformation for I=  20.
 Complete sort for second half transformation.
 Second half transformation complete.
 SymMOI:  orbitals are not symmetric.
 Spin components of T(2) and E(2):
     alpha-alpha T2 =       0.2626141341D-01 E2=     -0.8459411119D-01
     alpha-beta  T2 =       0.1501676651D+00 E2=     -0.4881505729D+00
     beta-beta   T2 =       0.2626141341D-01 E2=     -0.8459411119D-01
 ANorm=    0.1550929071D+01
 E2 =    -0.6573387952D+00 EUMP2 =    -0.22021555920336D+03
 Leave Link  804 at Wed May 11 21:24:30 2022, MaxMem= 67108864000 cpu:              51.4 elap:               1.9
 (Enter /cm/shared/apps/gaussian/intel/EM64T/SSE4_2-enabled/binary//g16/l1002.exe)
 Minotr:  Closed shell wavefunction.
          Computing MP2/KS-MP2 derivatives.
          Using Z-Vector for PSCF gradient.
          Skipping F1 and S1 gradient terms here.
          IDoAtm=1111111111111
          Using MO integrals in the linear equations.
          Forming densities via direct SCF.
          Differentiating once with respect to electric field.
                with respect to dipole field.
          Differentiating once with respect to nuclear coordinates.
          Requested convergence is 1.0D-10 RMS, and 1.0D-09 maximum.
          NewPWx=F KeepS1=T KeepF1=T KeepIn=T MapXYZ=F SortEE=F KeepMc=T.
          MDV=   67108864000 using IRadAn=       5.
          Solving linear equations separately, MaxMat=       0.
          There are     1 degrees of freedom in the 1st order CPHF.  IDoFFX=0 NUNeed=     1.
 FoFJK:  IHMeth= 1 ICntrl=       0 DoSepK=F KAlg= 0 I1Cent=           0 FoldK=F
 IRaf=         0 NMat=       1 IRICut=       1 DoRegI=T DoRafI=F ISym2E= 0 IDoP0=0 IntGTp=1.
 FoFCou: FMM=F IPFlag=           0 FMFlag=      100000 FMFlg1=           0
         NFxFlg=           0 DoJE=F BraDBF=F KetDBF=F FulRan=T
         wScrn=  0.000000 ICntrl=         0 IOpCl=  0 I1Cent=           0 NGrid=           0
         NMat0=    1 NMatS0=      1 NMatT0=    0 NMatD0=    1 NMtDS0=    0 NMtDT0=    0
 Symmetry not used in FoFCou.
 LinEq1:  Iter=  0 NonCon=     1 RMS=7.30D-03 Max=1.12D-01 NDo=     1
 LinEq1:  Iter=  1 NonCon=     1 RMS=1.64D-03 Max=1.20D-02 NDo=     1
 LinEq1:  Iter=  2 NonCon=     1 RMS=5.13D-04 Max=7.67D-03 NDo=     1
 LinEq1:  Iter=  3 NonCon=     1 RMS=1.84D-04 Max=2.44D-03 NDo=     1
 LinEq1:  Iter=  4 NonCon=     1 RMS=5.12D-05 Max=4.15D-04 NDo=     1
 LinEq1:  Iter=  5 NonCon=     1 RMS=1.09D-05 Max=8.41D-05 NDo=     1
 LinEq1:  Iter=  6 NonCon=     1 RMS=4.61D-06 Max=3.10D-05 NDo=     1
 LinEq1:  Iter=  7 NonCon=     1 RMS=7.55D-07 Max=6.84D-06 NDo=     1
 LinEq1:  Iter=  8 NonCon=     1 RMS=8.43D-08 Max=7.61D-07 NDo=     1
 LinEq1:  Iter=  9 NonCon=     1 RMS=1.50D-08 Max=1.80D-07 NDo=     1
 LinEq1:  Iter= 10 NonCon=     1 RMS=2.31D-09 Max=2.81D-08 NDo=     1
 LinEq1:  Iter= 11 NonCon=     1 RMS=6.46D-10 Max=5.51D-09 NDo=     1
 LinEq1:  Iter= 12 NonCon=     1 RMS=2.97D-10 Max=2.72D-09 NDo=     1
 LinEq1:  Iter= 13 NonCon=     0 RMS=4.05D-11 Max=2.78D-10 NDo=     1
 Linear equations converged to 1.000D-10 1.000D-09 after    13 iterations.
 End of Minotr F.D. properties file   721 does not exist.
 End of Minotr F.D. properties file   722 does not exist.
 End of Minotr F.D. properties file   788 does not exist.
 Leave Link 1002 at Wed May 11 21:24:31 2022, MaxMem= 67108864000 cpu:              27.3 elap:               1.0
 (Enter /cm/shared/apps/gaussian/intel/EM64T/SSE4_2-enabled/binary//g16/l1102.exe)
 Use density number 2.
 Symmetrizing basis deriv contribution to polar:
 IMax=3 JMax=2 DiffMx= 0.00D+00
 Leave Link 1102 at Wed May 11 21:24:31 2022, MaxMem= 67108864000 cpu:               0.6 elap:               0.0
 (Enter /cm/shared/apps/gaussian/intel/EM64T/SSE4_2-enabled/binary//g16/l1110.exe)
 Forming Gx(P) for generalized density number  2 NAtomX=    13.
 Integral derivatives from FoFJK, PRISM(SPDF).
 Do as many integral derivatives as possible in FoFJK.
 G2DrvN: MDV=   67108862980.
 G2DrvN: will do    14 centers at a time, making    1 passes.
 Calling FoFCou, ICntrl=  3107 FMM=F I1Cent=   0 AccDes= 0.00D+00.
 FoFJK:  IHMeth= 1 ICntrl=    3107 DoSepK=F KAlg= 0 I1Cent=           0 FoldK=F
 IRaf=         0 NMat=       1 IRICut=       1 DoRegI=T DoRafI=F ISym2E= 0 IDoP0=0 IntGTp=1.
 FoFCou: FMM=F IPFlag=           0 FMFlag=      100000 FMFlg1=           0
         NFxFlg=           0 DoJE=F BraDBF=F KetDBF=F FulRan=T
         wScrn=  0.000000 ICntrl=      3107 IOpCl=  0 I1Cent=           0 NGrid=           0
         NMat0=    1 NMatS0=      1 NMatT0=    0 NMatD0=    1 NMtDS0=    0 NMtDT0=    0
 Symmetry not used in FoFCou.
 End of G2Drv F.D. properties file   721 does not exist.
 End of G2Drv F.D. properties file   722 does not exist.
 End of G2Drv F.D. properties file   788 does not exist.
 Leave Link 1110 at Wed May 11 21:24:32 2022, MaxMem= 67108864000 cpu:               7.8 elap:               0.3
 (Enter /cm/shared/apps/gaussian/intel/EM64T/SSE4_2-enabled/binary//g16/l1112.exe)
 MP22nd: MDV=   67108864000
 This link is doing NAtomX=    13 total of    42 degrees of freedom.
 Using ON3 I/O method in MakUI.
 Using Ix for Sx.
 Using OV2 memory method for fx*t*t/D, MaxI=    25 DoOO2=F NP=  28.
 R2 and R3 integrals will be kept in memory, NReq=    25327450.
 FoFCou: FMM=F IPFlag=           0 FMFlag=           0 FMFlg1=           0
         NFxFlg=           0 DoJE=F BraDBF=F KetDBF=F FulRan=T
         wScrn=  0.000000 ICntrl=       600 IOpCl=  0 I1Cent=           0 NGrid=           0
         NMat0=    1 NMatS0=      1 NMatT0=    0 NMatD0=    1 NMtDS0=    0 NMtDT0=    0
 Symmetry not used in FoFCou.
 DD1Dir will call FoFMem   1 times, MxPair=       650
 NAB=   325 NAA=     0 NBB=     0.
 Symmetry is being used.
 FoFJK:  IHMeth= 1 ICntrl=       0 DoSepK=F KAlg= 0 I1Cent=           0 FoldK=F
 IRaf=         0 NMat=      42 IRICut=     105 DoRegI=T DoRafI=T ISym2E= 2 IDoP0=0 IntGTp=1.
 Discarding MO integrals.
 Leave Link 1112 at Wed May 11 21:24:41 2022, MaxMem= 67108864000 cpu:             265.4 elap:               9.6
 (Enter /cm/shared/apps/gaussian/intel/EM64T/SSE4_2-enabled/binary//g16/l601.exe)
 Copying SCF densities to generalized density rwf, IOpCl= 0 IROHF=0.

 **********************************************************************

            Population analysis using the SCF density.

 **********************************************************************

 Orbital symmetries:
       Occupied  (A) (A) (A) (A) (A) (A) (A) (A) (A) (A) (A) (A)
                 (A) (A) (A) (A) (A) (A) (A) (A) (A) (A) (A) (A)
                 (A)
       Virtual   (A) (A) (A) (A) (A) (A) (A) (A) (A) (A) (A) (A)
                 (A) (A) (A) (A) (A) (A) (A) (A) (A) (A) (A) (A)
                 (A) (A) (A) (A) (A) (A) (A) (A) (A) (A) (A) (A)
                 (A) (A) (A) (A) (A) (A) (A) (A) (A) (A) (A) (A)
                 (A) (A) (A) (A) (A) (A) (A) (A) (A) (A) (A) (A)
                 (A) (A) (A) (A) (A) (A) (A) (A) (A) (A) (A) (A)
                 (A) (A)
 The electronic state is 1-A.
 Alpha  occ. eigenvalues --   -5.45164  -3.44709  -3.44167  -3.44146  -1.75218
 Alpha  occ. eigenvalues --   -1.75190  -1.67033  -1.65931  -1.11256  -1.10238
 Alpha  occ. eigenvalues --   -1.08552  -1.08548  -1.08047  -1.03592  -1.02160
 Alpha  occ. eigenvalues --   -1.00852  -1.00851  -0.95697  -0.92967  -0.90915
 Alpha  occ. eigenvalues --   -0.90092  -0.84885  -0.83758  -0.83242  -0.83197
 Alpha virt. eigenvalues --   -0.26231  -0.20729  -0.20428  -0.17442  -0.15826
 Alpha virt. eigenvalues --   -0.12243  -0.11523  -0.08771  -0.08285  -0.08175
 Alpha virt. eigenvalues --   -0.06751  -0.05877  -0.05063  -0.02352  -0.02327
 Alpha virt. eigenvalues --   -0.02001  -0.01738  -0.01485  -0.00363   0.00767
 Alpha virt. eigenvalues --    0.02806   0.03724   0.06270   0.07367   0.08551
 Alpha virt. eigenvalues --    0.09893   0.10620   0.10917   0.12846   0.14790
 Alpha virt. eigenvalues --    0.18824   0.20996   0.22761   0.25153   0.33702
 Alpha virt. eigenvalues --    0.59908   0.60013   0.65892   0.66295   0.93180
 Alpha virt. eigenvalues --    0.96498   1.01596   1.02976   1.04686   1.05402
 Alpha virt. eigenvalues --    1.06099   1.06954   1.07815   1.08789   1.11304
 Alpha virt. eigenvalues --    1.15288   1.16256   1.16541   1.17442   1.18902
 Alpha virt. eigenvalues --    1.19267   1.20547   1.20955   1.26963   1.29134
 Alpha virt. eigenvalues --    1.31617   1.36191   1.53543   1.55863   2.18839
 Alpha virt. eigenvalues --    2.49794   2.78623   2.98359   4.21225  15.45842
 Alpha virt. eigenvalues --   41.56111  41.56180  41.69661  81.44261
          Condensed to atoms (all electrons):
               1          2          3          4          5          6
     1  Hg  18.373092   0.000237   0.002669   0.000157  -0.000342   0.123336
     2  H    0.000237   0.214818   0.250374  -0.010025   0.000000   0.000001
     3  O    0.002669   0.250374   6.292016   0.249529   0.000000   0.000022
     4  H    0.000157  -0.010025   0.249529   0.217211  -0.000000   0.000000
     5  H   -0.000342   0.000000   0.000000  -0.000000   0.127418   0.107022
     6  O    0.123336   0.000001   0.000022   0.000000   0.107022   6.689373
     7  H   -0.009898  -0.000000   0.000001   0.000000  -0.003144   0.243790
     8  H    0.000157   0.000000  -0.000000  -0.000000  -0.003051   0.002076
     9  O    0.002672  -0.000000  -0.000000  -0.000000   0.121169  -0.054941
    10  H    0.000237   0.000000  -0.000000   0.000000  -0.003131   0.002441
    11  H   -0.009880  -0.000025   0.001453  -0.000018   0.000000  -0.000080
    12  O    0.123396   0.002442  -0.054934   0.002074   0.000009  -0.001720
    13  H   -0.000352  -0.003133   0.121152  -0.003052   0.000000   0.000009
               7          8          9         10         11         12
     1  Hg  -0.009898   0.000157   0.002672   0.000237  -0.009880   0.123396
     2  H   -0.000000   0.000000  -0.000000   0.000000  -0.000025   0.002442
     3  O    0.000001  -0.000000  -0.000000  -0.000000   0.001453  -0.054934
     4  H    0.000000  -0.000000  -0.000000   0.000000  -0.000018   0.002074
     5  H   -0.003144  -0.003051   0.121169  -0.003131   0.000000   0.000009
     6  O    0.243790   0.002076  -0.054941   0.002441  -0.000080  -0.001720
     7  H    0.235111  -0.000018   0.001453  -0.000025  -0.000000  -0.000080
     8  H   -0.000018   0.217172   0.249526  -0.010021   0.000000   0.000000
     9  O    0.001453   0.249526   6.292074   0.250370   0.000001   0.000022
    10  H   -0.000025  -0.010021   0.250370   0.214795  -0.000000   0.000001
    11  H   -0.000000   0.000000   0.000001  -0.000000   0.235149   0.243787
    12  O   -0.000080   0.000000   0.000022   0.000001   0.243787   6.688992
    13  H    0.000000  -0.000000   0.000000   0.000000  -0.003155   0.107088
              13
     1  Hg  -0.000352
     2  H   -0.003133
     3  O    0.121152
     4  H   -0.003052
     5  H    0.000000
     6  O    0.000009
     7  H    0.000000
     8  H   -0.000000
     9  O    0.000000
    10  H    0.000000
    11  H   -0.003155
    12  O    0.107088
    13  H    0.127486
 Mulliken charges:
               1
     1  Hg   1.394520
     2  H    0.545311
     3  O   -0.862282
     4  H    0.544123
     5  H    0.654050
     6  O   -1.111329
     7  H    0.532809
     8  H    0.544159
     9  O   -0.862345
    10  H    0.545334
    11  H    0.532768
    12  O   -1.111077
    13  H    0.653958
 Sum of Mulliken charges =   2.00000
 Mulliken charges with hydrogens summed into heavy atoms:
               1
     1  Hg   1.394520
     3  O    0.881110
     6  O   -0.578519
     9  O    0.881199
    12  O   -0.578309
         Mulliken charges condensed to fragments:
      1      1.394520
      2      0.605480
 APT charges:
               1
     1  Hg   1.306237
     2  H    0.439645
     3  O   -0.845849
     4  H    0.435933
     5  H    0.968830
     6  O   -0.981717
     7  H    0.330061
     8  H    0.435991
     9  O   -0.845961
    10  H    0.439667
    11  H    0.330043
    12  O   -0.981597
    13  H    0.968718
 Sum of APT charges =   2.00000
 APT charges with hydrogens summed into heavy atoms:
               1
     1  Hg   1.306237
     3  O    0.998448
     6  O   -0.651656
     9  O    0.998526
    12  O   -0.651554
         APT charges condensed to fragments:
      1      1.306237
      2      0.693763
 Electronic spatial extent (au):  <R**2>=           1260.9551
 Charge=              2.0000 electrons
 Dipole moment (field-independent basis, Debye):
    X=             -0.0006    Y=              0.6197    Z=              0.0042  Tot=              0.6198
 Quadrupole moment (field-independent basis, Debye-Ang):
   XX=             73.6467   YY=            -35.0326   ZZ=            -38.9872
   XY=              0.0178   XZ=              4.2962   YZ=             -0.0029
 Traceless Quadrupole moment (field-independent basis, Debye-Ang):
   XX=             73.7711   YY=            -34.9083   ZZ=            -38.8628
   XY=              0.0178   XZ=              4.2962   YZ=             -0.0029
 Octapole moment (field-independent basis, Debye-Ang**2):
  XXX=              0.0211  YYY=             -4.1921  ZZZ=              0.0853  XYY=              0.0092
  XXY=             67.8205  XXZ=             -0.0590  XZZ=             -0.0026  YZZ=            -14.1883
  YYZ=             -0.0470  XYZ=              4.7952
 Hexadecapole moment (field-independent basis, Debye-Ang**3):
 XXXX=           1061.1613 YYYY=            -71.3350 ZZZZ=            -71.6183 XXXY=             -0.0349
 XXXZ=            -55.0987 YYYX=              0.1714 YYYZ=             -0.0176 ZZZX=             16.3442
 ZZZY=             -0.0066 XXYY=           -108.3973 XXZZ=           -217.6225 YYZZ=            -26.7814
 XXYZ=             -0.1367 YYXZ=             27.0797 ZZXY=             -0.0479
 N-N= 1.978452396170D+02 E-N=-8.613219986506D+02  KE= 1.049232181520D+02
  Exact polarizability:  65.600   0.001  34.527   1.055  -0.001  33.544
 Approx polarizability:  34.701  -0.000  25.253  -0.333  -0.001  24.097
 No NMR shielding tensors so no spin-rotation constants.
 Leave Link  601 at Wed May 11 21:24:41 2022, MaxMem= 67108864000 cpu:               4.3 elap:               0.2
 (Enter /cm/shared/apps/gaussian/intel/EM64T/SSE4_2-enabled/binary//g16/l701.exe)
 ... and contract with generalized density number  2.
 Compute integral second derivatives.
   1 Symmetry operations used in ECPInt.
 ECPInt:  NShTT=    1275 NPrTT=    4064 LenC2=    1244 LenP2D=    3214.
 LDataN:  DoStor=T MaxTD1= 9 Len=  602
 Leave Link  701 at Wed May 11 21:24:43 2022, MaxMem= 67108864000 cpu:              33.2 elap:               1.2
 (Enter /cm/shared/apps/gaussian/intel/EM64T/SSE4_2-enabled/binary//g16/l702.exe)
 L702 exits ... SP integral derivatives will be done elsewhere.
 Leave Link  702 at Wed May 11 21:24:43 2022, MaxMem= 67108864000 cpu:               1.0 elap:               0.1
 (Enter /cm/shared/apps/gaussian/intel/EM64T/SSE4_2-enabled/binary//g16/l703.exe)
 Integral derivatives from FoFJK, PRISM(SPDF).
 Compute integral second derivatives, UseDBF=F ICtDFT=           0.
 Calling FoFJK, ICntrl=  10100127 FMM=F ISym2X=0 I1Cent= 0 IOpClX= 0 NMat=1 NMatS=1 NMatT=0.
 FoFJK:  IHMeth= 1 ICntrl=10100127 DoSepK=F KAlg= 0 I1Cent=           0 FoldK=F
 IRaf=         0 NMat=       1 IRICut=       1 DoRegI=T DoRafI=F ISym2E= 0 IDoP0=0 IntGTp=1.
 FoFCou: FMM=F IPFlag=           0 FMFlag=      100000 FMFlg1=         800
         NFxFlg=           0 DoJE=F BraDBF=F KetDBF=F FulRan=T
         wScrn=  0.000000 ICntrl=  10100127 IOpCl=  0 I1Cent=           0 NGrid=           0
         NMat0=    1 NMatS0=      1 NMatT0=    0 NMatD0=    1 NMtDS0=    0 NMtDT0=    0
 Symmetry not used in FoFCou.
 Leave Link  703 at Wed May 11 21:24:43 2022, MaxMem= 67108864000 cpu:              12.5 elap:               0.5
 (Enter /cm/shared/apps/gaussian/intel/EM64T/SSE4_2-enabled/binary//g16/l716.exe)
 Dipole        =-2.08663634D-04 3.30946529D-01 1.42460157D-03
 Polarizability= 6.55997218D+01 1.25163627D-03 3.45271912D+01
                 1.05496947D+00-6.71116464D-04 3.35440947D+01
 Full mass-weighted force constant matrix:
 Low frequencies --- -228.1530 -225.8382 -123.4455 -101.5279  -45.2957  -44.1397
 Low frequencies ---   -9.1216   -0.0001    0.0001
 ******    4 imaginary frequencies (negative Signs) ****** 
 Diagonal vibrational polarizability:
     1880.7422523     319.5696784     303.1268280
 Harmonic frequencies (cm**-1), IR intensities (KM/Mole), Raman scattering
 activities (A**4/AMU), depolarization ratios for plane and unpolarized
 incident light, reduced masses (AMU), force constants (mDyne/A),
 and normal coordinates:
                      1                      2                      3
                      A                      A                      A
 Frequencies --   -225.5298              -217.0034              -101.2174
 Red. masses --      1.0694                 1.0398                 2.3203
 Frc consts  --      0.0320                 0.0288                 0.0140
 IR Inten    --    105.7910                52.2819                10.5637
  Atom  AN      X      Y      Z        X      Y      Z        X      Y      Z
     1  80    -0.00  -0.00   0.00    -0.00  -0.00  -0.01     0.00  -0.01   0.00
     2   1     0.22   0.31   0.32    -0.23  -0.32  -0.25     0.20   0.24  -0.08
     3   8    -0.00  -0.03   0.02     0.01   0.02   0.02    -0.01   0.14  -0.05
     4   1    -0.17  -0.10  -0.45     0.19   0.06   0.48    -0.17   0.25  -0.18
     5   1    -0.01   0.02   0.01     0.01   0.01   0.02     0.02   0.02  -0.05
     6   8    -0.01   0.02   0.01    -0.00  -0.01   0.00     0.04  -0.10  -0.10
     7   1    -0.01   0.07   0.06    -0.01  -0.01   0.00     0.10  -0.33  -0.32
     8   1     0.17  -0.09   0.45     0.19  -0.06   0.49     0.17   0.25   0.18
     9   8     0.00  -0.03  -0.02     0.01  -0.02   0.02     0.01   0.14   0.05
    10   1    -0.22   0.31  -0.32    -0.23   0.32  -0.25    -0.20   0.24   0.08
    11   1     0.01   0.07  -0.06    -0.01   0.01   0.00    -0.10  -0.33   0.33
    12   8     0.01   0.02  -0.01    -0.00   0.01   0.00    -0.04  -0.09   0.10
    13   1     0.01   0.02  -0.01     0.01  -0.01   0.02    -0.03   0.02   0.05
                      4                      5                      6
                      A                      A                      A
 Frequencies --    -67.7672                42.3801                95.9880
 Red. masses --      3.4996                 5.0270                 4.2629
 Frc consts  --      0.0095                 0.0053                 0.0231
 IR Inten    --     48.5206                 8.7818               386.0629
  Atom  AN      X      Y      Z        X      Y      Z        X      Y      Z
     1  80    -0.01  -0.00  -0.04    -0.00  -0.05   0.00    -0.04   0.00   0.04
     2   1     0.21   0.13   0.20     0.21   0.20   0.05     0.12  -0.04   0.07
     3   8     0.12   0.04   0.15     0.22   0.20   0.05     0.21  -0.04  -0.01
     4   1     0.03   0.12   0.12     0.21   0.28   0.17     0.24  -0.04   0.05
     5   1     0.09   0.09   0.05    -0.15   0.09   0.08     0.29   0.15  -0.28
     6   8    -0.05   0.17   0.05    -0.05   0.08   0.13     0.03   0.02  -0.20
     7   1    -0.15   0.41   0.29    -0.04   0.22   0.25     0.08  -0.14  -0.34
     8   1     0.03  -0.12   0.12    -0.21   0.28  -0.17     0.24   0.04   0.05
     9   8     0.12  -0.04   0.15    -0.22   0.20  -0.05     0.21   0.04  -0.01
    10   1     0.21  -0.13   0.20    -0.21   0.20  -0.05     0.12   0.04   0.07
    11   1    -0.15  -0.41   0.29     0.04   0.22  -0.25     0.08   0.13  -0.34
    12   8    -0.05  -0.17   0.05     0.05   0.08  -0.13     0.03  -0.02  -0.20
    13   1     0.09  -0.09   0.05     0.15   0.09  -0.08     0.29  -0.15  -0.28
                      7                      8                      9
                      A                      A                      A
 Frequencies --    115.8005               311.0939               326.3954
 Red. masses --      4.9119                 1.1916                 1.2072
 Frc consts  --      0.0388                 0.0679                 0.0758
 IR Inten    --     11.1135               146.0858               100.8838
  Atom  AN      X      Y      Z        X      Y      Z        X      Y      Z
     1  80    -0.00  -0.06   0.00    -0.00   0.00  -0.01     0.00   0.01   0.00
     2   1    -0.24   0.01  -0.11     0.21   0.01  -0.15     0.22  -0.01  -0.18
     3   8    -0.20   0.10  -0.03     0.01  -0.00   0.00     0.01  -0.01  -0.01
     4   1    -0.14   0.04  -0.02    -0.15   0.20   0.05    -0.15   0.19   0.03
     5   1     0.15   0.21  -0.13    -0.03   0.18   0.10     0.01  -0.20  -0.09
     6   8     0.04   0.22  -0.09    -0.01   0.05   0.05     0.01  -0.05  -0.06
     7   1     0.06   0.45   0.10     0.10  -0.41  -0.38    -0.11   0.41   0.37
     8   1     0.14   0.04   0.02    -0.15  -0.20   0.05     0.15   0.19  -0.03
     9   8     0.20   0.10   0.03     0.01   0.00   0.00    -0.01  -0.01   0.01
    10   1     0.24   0.01   0.11     0.21  -0.01  -0.15    -0.22  -0.01   0.18
    11   1    -0.06   0.45  -0.11     0.10   0.41  -0.38     0.11   0.40  -0.37
    12   8    -0.03   0.22   0.09    -0.01  -0.05   0.06    -0.01  -0.05   0.06
    13   1    -0.15   0.21   0.13    -0.03  -0.18   0.10    -0.01  -0.20   0.09
                     10                     11                     12
                      A                      A                      A
 Frequencies --    414.9580               418.5390               448.7308
 Red. masses --      1.6282                 2.4233                 1.7402
 Frc consts  --      0.1652                 0.2501                 0.2065
 IR Inten    --   1401.1948                 8.4826                60.4701
  Atom  AN      X      Y      Z        X      Y      Z        X      Y      Z
     1  80    -0.00  -0.00  -0.01    -0.00   0.00  -0.00     0.00  -0.00   0.00
     2   1    -0.24  -0.03   0.16     0.19   0.06  -0.12     0.34  -0.10  -0.28
     3   8     0.05  -0.00  -0.05    -0.11   0.02   0.08     0.05  -0.07  -0.00
     4   1     0.26  -0.27  -0.14    -0.34   0.32   0.17    -0.17   0.17  -0.01
     5   1     0.34  -0.09  -0.20     0.26  -0.19  -0.11    -0.07  -0.16  -0.20
     6   8    -0.04   0.00   0.11     0.05  -0.02   0.17    -0.06   0.11  -0.03
     7   1    -0.14  -0.23  -0.06    -0.02  -0.19   0.04     0.05  -0.19  -0.32
     8   1     0.25   0.27  -0.14     0.34   0.32  -0.17     0.18   0.18   0.02
     9   8     0.05   0.00  -0.05     0.11   0.02  -0.08    -0.05  -0.07   0.01
    10   1    -0.23   0.03   0.16    -0.19   0.06   0.12    -0.35  -0.10   0.30
    11   1    -0.14   0.23  -0.06     0.02  -0.18  -0.04    -0.04  -0.18   0.31
    12   8    -0.04  -0.00   0.12    -0.05  -0.02  -0.16     0.06   0.11   0.03
    13   1     0.34   0.09  -0.20    -0.25  -0.19   0.11     0.06  -0.15   0.19
                     13                     14                     15
                      A                      A                      A
 Frequencies --    452.7701               533.7356               641.4315
 Red. masses --      1.6480                 2.7520                 3.8188
 Frc consts  --      0.1990                 0.4619                 0.9257
 IR Inten    --    559.7860              2753.9476               125.7837
  Atom  AN      X      Y      Z        X      Y      Z        X      Y      Z
     1  80    -0.01  -0.00  -0.00    -0.04  -0.00  -0.01    -0.00  -0.00  -0.00
     2   1     0.32  -0.11  -0.31     0.05  -0.00   0.01     0.06  -0.01   0.02
     3   8     0.06  -0.07  -0.03     0.07  -0.02  -0.03     0.07  -0.05  -0.05
     4   1    -0.16   0.17  -0.06     0.17  -0.13  -0.02     0.02   0.05   0.03
     5   1     0.24   0.21   0.08    -0.39  -0.28   0.27    -0.33  -0.19   0.22
     6   8    -0.01  -0.10   0.05     0.18  -0.00   0.09     0.28   0.06   0.02
     7   1    -0.15   0.12   0.27     0.32   0.02   0.07     0.45   0.06  -0.02
     8   1    -0.15  -0.16  -0.06     0.17   0.13  -0.02    -0.02   0.05  -0.03
     9   8     0.06   0.06  -0.03     0.07   0.02  -0.03    -0.07  -0.05   0.05
    10   1     0.30   0.11  -0.29     0.05   0.00   0.01    -0.06  -0.01  -0.02
    11   1    -0.15  -0.13   0.29     0.32  -0.02   0.07    -0.45   0.06   0.02
    12   8    -0.01   0.10   0.05     0.18   0.00   0.09    -0.28   0.06  -0.02
    13   1     0.24  -0.22   0.09    -0.39   0.28   0.27     0.33  -0.19  -0.22
                     16                     17                     18
                      A                      A                      A
 Frequencies --    719.0377               720.7847               880.4405
 Red. masses --      1.2497                 1.1960                 2.0196
 Frc consts  --      0.3807                 0.3661                 0.9224
 IR Inten    --    557.4619               248.6185              2030.8626
  Atom  AN      X      Y      Z        X      Y      Z        X      Y      Z
     1  80     0.00   0.00  -0.00     0.00  -0.00  -0.00    -0.01  -0.00  -0.01
     2   1     0.04   0.26   0.36     0.03   0.29   0.40    -0.10   0.07   0.11
     3   8     0.01  -0.04  -0.06    -0.00  -0.04  -0.06    -0.08   0.02   0.02
     4   1     0.01   0.22   0.40     0.00   0.24   0.44    -0.15   0.15   0.11
     5   1    -0.13   0.06  -0.13     0.13  -0.05   0.11     0.52   0.21  -0.22
     6   8    -0.02  -0.02   0.02    -0.02   0.02  -0.02     0.16   0.02   0.01
     7   1     0.06   0.03   0.05    -0.10  -0.03  -0.04    -0.11  -0.03   0.03
     8   1     0.01  -0.24   0.44     0.00   0.22  -0.39    -0.15  -0.15   0.11
     9   8     0.01   0.05  -0.07     0.00  -0.04   0.06    -0.08  -0.02   0.02
    10   1     0.04  -0.29   0.40    -0.03   0.26  -0.36    -0.10  -0.07   0.11
    11   1     0.04  -0.03   0.05     0.10  -0.03   0.05    -0.11   0.03   0.03
    12   8    -0.02   0.02   0.02     0.01   0.02   0.02     0.16  -0.02   0.01
    13   1    -0.11  -0.06  -0.12    -0.14  -0.05  -0.12     0.53  -0.21  -0.22
                     19                     20                     21
                      A                      A                      A
 Frequencies --    952.2991              1103.1677              1131.5576
 Red. masses --      1.2519                 1.0814                 1.0742
 Frc consts  --      0.6689                 0.7754                 0.8104
 IR Inten    --    292.1252              1341.7738               634.6573
  Atom  AN      X      Y      Z        X      Y      Z        X      Y      Z
     1  80    -0.00  -0.00   0.00    -0.00  -0.00  -0.00    -0.00   0.00  -0.00
     2   1     0.07  -0.03  -0.07    -0.07  -0.06  -0.04     0.09   0.07   0.03
     3   8     0.05  -0.01  -0.01     0.00   0.02   0.02     0.01  -0.02  -0.03
     4   1     0.11  -0.11  -0.07    -0.04  -0.01  -0.09     0.08  -0.02   0.08
     5   1     0.52   0.16  -0.15     0.01   0.21  -0.31     0.15   0.26  -0.38
     6   8     0.07   0.02  -0.01    -0.02  -0.02   0.03    -0.01  -0.02   0.02
     7   1    -0.35  -0.07   0.01     0.56   0.13   0.03     0.47   0.11   0.03
     8   1    -0.11  -0.11   0.07    -0.04   0.01  -0.09    -0.08  -0.02  -0.09
     9   8    -0.05  -0.01   0.01     0.00  -0.02   0.02    -0.01  -0.02   0.03
    10   1    -0.07  -0.03   0.07    -0.07   0.06  -0.04    -0.09   0.07  -0.03
    11   1     0.35  -0.07  -0.01     0.57  -0.13   0.03    -0.47   0.11  -0.03
    12   8    -0.07   0.02   0.01    -0.02   0.02   0.03     0.01  -0.02  -0.02
    13   1    -0.52   0.16   0.15     0.01  -0.21  -0.31    -0.15   0.26   0.38
                     22                     23                     24
                      A                      A                      A
 Frequencies --   1559.3427              1567.8537              1693.6252
 Red. masses --      1.0664                 1.0660                 1.0569
 Frc consts  --      1.5278                 1.5440                 1.7862
 IR Inten    --    971.9166                24.0885               164.6583
  Atom  AN      X      Y      Z        X      Y      Z        X      Y      Z
     1  80    -0.00  -0.00  -0.00    -0.00   0.00  -0.00    -0.00  -0.00  -0.00
     2   1     0.05   0.09   0.07    -0.04  -0.08  -0.07    -0.20  -0.00   0.12
     3   8    -0.02   0.00  -0.02     0.02  -0.01   0.02     0.01   0.03  -0.01
     4   1     0.12  -0.07   0.08    -0.11   0.06  -0.07     0.07  -0.08  -0.08
     5   1     0.37  -0.03   0.46     0.40  -0.02   0.46    -0.18   0.61   0.25
     6   8    -0.03   0.00  -0.01    -0.03   0.00  -0.01     0.01  -0.01  -0.00
     7   1     0.30   0.07  -0.02     0.31   0.07  -0.02    -0.11  -0.01   0.02
     8   1     0.12   0.07   0.08     0.11   0.07   0.08     0.08   0.10  -0.10
     9   8    -0.02  -0.00  -0.02    -0.02  -0.01  -0.02     0.02  -0.03  -0.02
    10   1     0.05  -0.09   0.07     0.04  -0.08   0.07    -0.24   0.00   0.14
    11   1     0.30  -0.07  -0.02    -0.30   0.07   0.02    -0.09   0.00   0.02
    12   8    -0.03  -0.00  -0.02     0.03   0.00   0.01     0.01   0.01  -0.00
    13   1     0.38   0.03   0.47    -0.39  -0.02  -0.45    -0.15  -0.51   0.22
                     25                     26                     27
                      A                      A                      A
 Frequencies --   1694.8484              1792.9510              1797.2166
 Red. masses --      1.0578                 1.0854                 1.0875
 Frc consts  --      1.7903                 2.0558                 2.0697
 IR Inten    --    210.0529               695.8428               115.9318
  Atom  AN      X      Y      Z        X      Y      Z        X      Y      Z
     1  80     0.00  -0.00   0.00    -0.00  -0.00  -0.00    -0.00  -0.00   0.00
     2   1     0.23   0.00  -0.14     0.41   0.15  -0.14     0.41   0.15  -0.14
     3   8    -0.02  -0.03   0.02    -0.05   0.02   0.01    -0.05   0.02   0.01
     4   1    -0.08   0.10   0.10     0.35  -0.31   0.13     0.35  -0.31   0.13
     5   1    -0.16   0.52   0.21    -0.05   0.16  -0.15     0.03  -0.16   0.16
     6   8     0.01  -0.01  -0.00     0.01  -0.00   0.00    -0.01   0.00  -0.00
     7   1    -0.10  -0.00   0.02    -0.05  -0.01   0.01     0.05   0.01  -0.01
     8   1     0.07   0.08  -0.08     0.35   0.31   0.13    -0.35  -0.31  -0.13
     9   8     0.01  -0.03  -0.01    -0.05  -0.02   0.01     0.05   0.02  -0.01
    10   1    -0.20   0.00   0.12     0.41  -0.15  -0.14    -0.41   0.15   0.14
    11   1     0.11  -0.01  -0.02    -0.05   0.01   0.01    -0.05   0.01   0.01
    12   8    -0.01  -0.01   0.00     0.01   0.00   0.00     0.01   0.00   0.00
    13   1     0.18   0.61  -0.25    -0.05  -0.16  -0.15    -0.03  -0.17  -0.16
                     28                     29                     30
                      A                      A                      A
 Frequencies --   3650.8483              3651.7473              3719.6232
 Red. masses --      1.0402                 1.0403                 1.0664
 Frc consts  --      8.1685                 8.1738                 8.6927
 IR Inten    --    295.8757                12.0236               237.7247
  Atom  AN      X      Y      Z        X      Y      Z        X      Y      Z
     1  80     0.00   0.00   0.00    -0.00   0.00  -0.00     0.00  -0.00  -0.00
     2   1    -0.21   0.40  -0.27    -0.18   0.36  -0.24    -0.00   0.00  -0.00
     3   8     0.03  -0.00   0.00     0.03  -0.00   0.00     0.00   0.00   0.00
     4   1    -0.34  -0.35   0.20    -0.31  -0.31   0.18     0.00  -0.00   0.00
     5   1     0.02  -0.00   0.00    -0.02   0.00  -0.01    -0.01   0.00   0.00
     6   8    -0.00  -0.00   0.00     0.00  -0.00   0.00    -0.01   0.03  -0.03
     7   1     0.00   0.00  -0.00    -0.00   0.01  -0.01     0.12  -0.46   0.52
     8   1    -0.31   0.31   0.18     0.34  -0.35  -0.20     0.00   0.00   0.00
     9   8     0.03   0.00   0.00    -0.03  -0.00  -0.00     0.00  -0.00   0.00
    10   1    -0.18  -0.36  -0.24     0.21   0.40   0.27    -0.00  -0.00  -0.00
    11   1     0.00   0.00   0.00     0.00   0.01   0.01     0.12   0.46   0.52
    12   8    -0.00   0.00   0.00    -0.00  -0.00  -0.00    -0.01  -0.03  -0.03
    13   1     0.02   0.00   0.01     0.01   0.00   0.01    -0.01  -0.00   0.00
                     31                     32                     33
                      A                      A                      A
 Frequencies --   3721.6409              3749.2976              3749.4779
 Red. masses --      1.0665                 1.0848                 1.0852
 Frc consts  --      8.7029                 8.9846                 8.9887
 IR Inten    --     82.9174               201.3315               334.5443
  Atom  AN      X      Y      Z        X      Y      Z        X      Y      Z
     1  80     0.00   0.00  -0.00     0.00   0.00   0.00    -0.00   0.00  -0.00
     2   1    -0.01   0.01  -0.01    -0.30   0.49  -0.35    -0.10   0.17  -0.12
     3   8     0.00  -0.00   0.00    -0.01  -0.06   0.04    -0.00  -0.02   0.01
     4   1    -0.00  -0.00   0.00     0.46   0.42  -0.23     0.16   0.14  -0.08
     5   1    -0.01   0.00  -0.00    -0.00   0.00   0.00     0.00  -0.01  -0.00
     6   8    -0.01   0.03  -0.03     0.00   0.00   0.00     0.00  -0.00   0.00
     7   1     0.12  -0.46   0.53    -0.00   0.00  -0.00    -0.00   0.00  -0.00
     8   1     0.00  -0.00  -0.00     0.16  -0.14  -0.08    -0.47   0.42   0.22
     9   8    -0.00  -0.00  -0.00    -0.00   0.02   0.01     0.01  -0.06  -0.04
    10   1     0.01   0.01   0.01    -0.10  -0.17  -0.12     0.30   0.49   0.34
    11   1    -0.12  -0.46  -0.52     0.00   0.00   0.00     0.00   0.00   0.00
    12   8     0.01   0.03   0.03    -0.00  -0.00  -0.00    -0.00  -0.00  -0.00
    13   1     0.01   0.00   0.00    -0.00  -0.01   0.00    -0.00  -0.00   0.00

 -------------------
 - Thermochemistry -
 -------------------
 Temperature   298.150 Kelvin.  Pressure   1.00000 Atm.
 Atom     1 has atomic number 80 and mass 201.97060
 Atom     2 has atomic number  1 and mass   1.00783
 Atom     3 has atomic number  8 and mass  15.99491
 Atom     4 has atomic number  1 and mass   1.00783
 Atom     5 has atomic number  1 and mass   1.00783
 Atom     6 has atomic number  8 and mass  15.99491
 Atom     7 has atomic number  1 and mass   1.00783
 Atom     8 has atomic number  1 and mass   1.00783
 Atom     9 has atomic number  8 and mass  15.99491
 Atom    10 has atomic number  1 and mass   1.00783
 Atom    11 has atomic number  1 and mass   1.00783
 Atom    12 has atomic number  8 and mass  15.99491
 Atom    13 has atomic number  1 and mass   1.00783
 Molecular mass:   274.01286 amu.
 Principal axes and moments of inertia in atomic units:
                           1         2         3
     Eigenvalues --   206.318282571.695372610.34790
           X            1.00000   0.00001   0.00267
           Y           -0.00001   1.00000   0.00012
           Z           -0.00267  -0.00012   1.00000
 This molecule is an asymmetric top.
 Rotational symmetry number  1.
 Rotational temperatures (Kelvin)      0.41981     0.03368     0.03318
 Rotational constants (GHZ):           8.74736     0.70177     0.69138
    4 imaginary frequencies ignored.
 Zero-point vibrational energy     249167.7 (Joules/Mol)
                                   59.55250 (Kcal/Mol)
 Warning -- explicit consideration of  10 degrees of freedom as
           vibrations may cause significant error
 Vibrational temperatures:     60.98   138.11   166.61   447.59   469.61
          (Kelvin)            597.03   602.18   645.62   651.44   767.93
                              922.88  1034.53  1037.05  1266.76  1370.15
                             1587.21  1628.06  2243.55  2255.79  2436.75
                             2438.51  2579.66  2585.79  5252.76  5254.05
                             5351.71  5354.61  5394.40  5394.66
 
 Zero-point correction=                           0.094903 (Hartree/Particle)
 Thermal correction to Energy=                    0.102654
 Thermal correction to Enthalpy=                  0.103598
 Thermal correction to Gibbs Free Energy=         0.060237
 Sum of electronic and zero-point Energies=           -220.120656
 Sum of electronic and thermal Energies=              -220.112905
 Sum of electronic and thermal Enthalpies=            -220.111961
 Sum of electronic and thermal Free Energies=         -220.155322
 
                     E (Thermal)             CV                S
                      KCal/Mol        Cal/Mol-Kelvin    Cal/Mol-Kelvin
 Total                   64.416             26.133             91.260
 Electronic               0.000              0.000              0.000
 Translational            0.889              2.981             42.723
 Rotational               0.889              2.981             28.717
 Vibrational             62.639             20.171             19.820
 Vibration     1          0.595              1.980              5.145
 Vibration     2          0.603              1.952              3.534
 Vibration     3          0.608              1.936              3.169
 Vibration     4          0.700              1.653              1.357
 Vibration     5          0.710              1.623              1.278
 Vibration     6          0.778              1.438              0.909
 Vibration     7          0.781              1.430              0.897
 Vibration     8          0.808              1.364              0.800
 Vibration     9          0.811              1.355              0.787
 Vibration    10          0.889              1.175              0.579
                       Q            Log10(Q)             Ln(Q)
 Total Bot       0.196237D-27        -27.707219        -63.798229
 Total V=0       0.881196D+16         15.945073         36.714887
 Vib (Bot)       0.261275D-41        -41.582902        -95.748171
 Vib (Bot)    1  0.488116D+01          0.688523          1.585382
 Vib (Bot)    2  0.213968D+01          0.330349          0.760656
 Vib (Bot)    3  0.176642D+01          0.247095          0.568956
 Vib (Bot)    4  0.607445D+00         -0.216493         -0.498493
 Vib (Bot)    5  0.573717D+00         -0.241302         -0.555619
 Vib (Bot)    6  0.424774D+00         -0.371842         -0.856198
 Vib (Bot)    7  0.419997D+00         -0.376754         -0.867509
 Vib (Bot)    8  0.382554D+00         -0.417308         -0.960887
 Vib (Bot)    9  0.377898D+00         -0.422625         -0.973131
 Vib (Bot)   10  0.298597D+00         -0.524915         -1.208662
 Vib (V=0)       0.117325D+03          2.069389          4.764944
 Vib (V=0)    1  0.540670D+01          0.732932          1.687639
 Vib (V=0)    2  0.269732D+01          0.430933          0.992260
 Vib (V=0)    3  0.233582D+01          0.368440          0.848365
 Vib (V=0)    4  0.128676D+01          0.109497          0.252127
 Vib (V=0)    5  0.126102D+01          0.100722          0.231921
 Vib (V=0)    6  0.115607D+01          0.062986          0.145030
 Vib (V=0)    7  0.115299D+01          0.061826          0.142359
 Vib (V=0)    8  0.112956D+01          0.052910          0.121829
 Vib (V=0)    9  0.112674D+01          0.051825          0.119331
 Vib (V=0)   10  0.108237D+01          0.034377          0.079157
 Electronic      0.100000D+01          0.000000          0.000000
 Translational   0.178283D+09          8.251110         18.998884
 Rotational      0.421282D+06          5.624573         12.951059
 
                      file 'w4s1.log' Now we use Def2-QZVPPD, but it was opt at: 
 ---' #p ZORA-SR+SO PBE QZ4P'---
                                                             IR Spectrum
 
    333333                                                             11 11   11             11                                     
    777766                                                             77 66   55             11    9  8   77  6  54444  33     1    
    442255                                                             99 99   65             30    5  8   21  4  35411  21     19 4 
    992021                                                             73 54   89             23    2  0   19  1  43995  61     66 2 
 
    XXXXXX                                                             XX XX   XX             XX    X  X   XX  X  XXXXX  XX     XX X 
    X  X X                                                              X X     X             XX    X  X   XX     XX  X          X   
                                                                        X       X             XX       X    X     XX  X          X   
                                                                        X       X             XX       X    X     XX  X              
                                                                        X       X             XX       X          X   X              
                                                                                X              X       X          X   X              
                                                                                X              X       X          X   X              
                                                                                               X       X          X   X              
                                                                                               X       X          X   X              
                                                                                               X       X          X   X              
                                                                                                       X          X                  
                                                                                                       X          X                  
                                                                                                       X          X                  
                                                                                                       X          X                  
                                                                                                       X          X                  
                                                                                                                  X                  
                                                                                                                  X                  
                                                                                                                  X                  
                                                                                                                  X                  
                                                                                                                  X                  
 
 ***** Axes restored to original set *****
 -------------------------------------------------------------------
 Center     Atomic                   Forces (Hartrees/Bohr)
 Number     Number              X              Y              Z
 -------------------------------------------------------------------
      1       80          -0.001594388   -0.007068141    0.000011203
      2        1          -0.004919456   -0.010643022    0.002396781
      3        8           0.011192532    0.008249640   -0.017939152
      4        1           0.000735654    0.002501490    0.011567749
      5        1           0.004866814   -0.006370185   -0.004746374
      6        8          -0.006720364    0.006823984   -0.001016668
      7        1          -0.004582175    0.003000882    0.007802370
      8        1           0.000378246    0.002507128   -0.011579352
      9        8          -0.006524048    0.012357835    0.017855746
     10        1          -0.000125186   -0.011724659   -0.002322404
     11        1           0.005407496    0.000694856   -0.007834746
     12        8           0.009018977    0.003300272    0.001023749
     13        1          -0.007134102   -0.003630080    0.004781100
 -------------------------------------------------------------------
 Cartesian Forces:  Max     0.017939152 RMS     0.007494826
 Z-matrix is all fixed cartesians, so copy forces.
 Force constants in Cartesian coordinates: 
                1             2             3             4             5 
      1  0.401594D+00
      2 -0.832578D-01  0.532865D-01
      3 -0.126407D+00  0.286764D-01  0.820068D-01
      4 -0.175357D-03  0.827334D-03 -0.101579D-03  0.873470D-01
      5  0.140620D-02  0.294552D-03 -0.404095D-03 -0.100428D+00  0.341275D+00
      6  0.574698D-05 -0.283450D-04  0.261981D-04 -0.441774D-01  0.199566D+00
      7  0.639929D-02 -0.793853D-04 -0.490164D-02 -0.998543D-01  0.824662D-01
      8 -0.566863D-02 -0.112408D-02  0.506290D-02  0.126094D+00 -0.318136D+00
      9  0.359547D-02  0.141127D-02 -0.513548D-02  0.535751D-01 -0.176009D+00
     10 -0.108791D-02  0.224158D-03 -0.127374D-03  0.111858D-01  0.121260D-01
     11  0.188708D-03  0.148620D-03  0.575427D-03 -0.376774D-01 -0.145110D-01
     12 -0.771654D-03  0.313955D-03  0.939329D-03 -0.224490D-01 -0.151731D-01
     13 -0.147496D-01  0.685108D-02  0.941993D-02 -0.184265D-03  0.673124D-03
     14 -0.255091D-03  0.329894D-02  0.494131D-02  0.750828D-05  0.208628D-03
     15  0.154560D-02  0.570456D-02  0.905450D-02 -0.794042D-04  0.347664D-03
     16 -0.181985D+00  0.237002D-01  0.406761D-01  0.141691D-03 -0.754293D-03
     17  0.412140D-01 -0.294072D-01 -0.202141D-01 -0.104495D-03 -0.485732D-04
     18  0.575061D-01 -0.181266D-01 -0.442838D-01  0.408634D-04  0.921827D-04
     19 -0.927566D-02  0.160803D-01  0.187925D-01 -0.136208D-05  0.104479D-04
     20 -0.153899D-02  0.232631D-03 -0.181115D-02  0.563648D-04 -0.604595D-04
     21  0.101829D-02 -0.513010D-02 -0.162800D-02  0.364764D-04 -0.108643D-03
     22 -0.102161D-02  0.328459D-03 -0.360561D-03 -0.265573D-04  0.483989D-04
     23  0.360891D-03  0.782650D-04 -0.460437D-03  0.333253D-04 -0.629121D-05
     24 -0.830334D-03  0.519816D-04  0.944122D-03 -0.186523D-04  0.286583D-04
     25  0.723272D-02 -0.394347D-02 -0.659691D-02  0.122275D-03 -0.370661D-03
     26  0.170291D-02 -0.199895D-02 -0.249180D-02 -0.301938D-04 -0.148770D-03
     27  0.260846D-02 -0.282913D-02 -0.509275D-02  0.438376D-04 -0.190951D-03
     28 -0.955297D-03 -0.233773D-03  0.846925D-04 -0.471903D-04  0.388204D-04
     29 -0.811159D-03  0.107637D-02  0.403617D-03  0.276452D-04  0.925492D-04
     30  0.238216D-04  0.168065D-04  0.236243D-04  0.722668D-05 -0.739405D-05
     31 -0.131411D-01 -0.961908D-02  0.177967D-01 -0.236147D-03  0.695425D-03
     32  0.792879D-02  0.410270D-02 -0.648311D-02  0.345153D-03 -0.336963D-03
     33  0.310523D-02  0.417887D-02 -0.163662D-02 -0.188416D-03  0.107274D-03
     34 -0.178853D+00  0.477237D-01  0.453263D-01 -0.345262D-02 -0.299590D-02
     35  0.302674D-01 -0.324265D-01  0.676631D-03  0.644293D-03  0.131624D-02
     36  0.596797D-01 -0.845648D-02 -0.443562D-01 -0.374354D-02  0.580982D-03
     37 -0.139811D-01  0.139828D-02  0.639908D-02  0.518103D-02  0.708416D-02
[...]
   1                    0.35059   0.32099  -0.28553   0.26217   0.25029
                          Z11       Y11       Y2        Z8        X8
   1                   -0.24868  -0.24318   0.23544  -0.23199   0.23067
 Eigenvalue     4 is  -2.50D-04 should be greater than     0.000000 Eigenvector:
                          Y7        X11       Z2        Z10       Y11
   1                    0.36288  -0.30226  -0.26055  -0.26024  -0.25828
                          Y6        Z1        X2        Z4        Z8
   1                    0.19914   0.18978   0.18580  -0.17696  -0.17597
 Quadratic step=2.554D+00 exceeds max=3.000D-01 adjusted using Lamda=-5.435D-02.
 Angle between NR and scaled steps=  70.63 degrees.
 Angle between quadratic step and forces=  26.24 degrees.
 Linear search not attempted -- first point.
 B after Tr=     0.001871    0.007316   -0.001226
         Rot=    0.999999   -0.000342   -0.001483    0.000004 Ang=  -0.17 deg.
 Variable       Old X    -DE/DX   Delta X   Delta X   Delta X     New X
                                 (Linear)    (Quad)   (Total)
    X1       -0.54078  -0.00159   0.00000  -0.01144  -0.00978  -0.55056
    Y1       -0.55487  -0.00707   0.00000  -0.05061  -0.04324  -0.59811
    Z1       -0.06920   0.00001   0.00000   0.00010   0.00010  -0.06910
    X2        6.68897  -0.00492   0.00000  -0.01073  -0.00906   6.67991
    Y2       -5.48963  -0.01064   0.00000  -0.08118  -0.07387  -5.56351
    Z2       -0.10027   0.00240   0.00000   0.05831   0.03346  -0.06681
    X3        6.14512   0.01119   0.00000   0.06589   0.06995   6.21507
    Y3       -3.99719   0.00825   0.00000   0.03281   0.03957  -3.95762
    Z3        0.84515  -0.01794   0.00000  -0.08540  -0.10776   0.73739
    X4        7.64455   0.00074   0.00000   0.00800   0.01450   7.65905
    Y4       -3.12158   0.00250   0.00000  -0.01343  -0.00725  -3.12882
    Z4        1.47883   0.01157   0.00000   0.10373   0.07765   1.55648
    X5       -6.17087   0.00487   0.00000   0.01415   0.01615  -6.15471
    Y5       -0.28740  -0.00637   0.00000  -0.01261  -0.00527  -0.29268
    Z5        0.04359  -0.00475   0.00000  -0.00865   0.00818   0.05178
    X6       -4.07505  -0.00672   0.00000  -0.02288  -0.01783  -4.09288
    Y6        0.15119   0.00682   0.00000   0.05541   0.06202   0.21321
    Z6        1.08907  -0.00102   0.00000  -0.02187  -0.01080   1.07827
    X7       -4.14218  -0.00458   0.00000  -0.05830  -0.04906  -4.19124
    Y7        1.41324   0.00300   0.00000  -0.00373   0.00192   1.41517
    Z7        2.43118   0.00780   0.00000   0.04387   0.05605   2.48723
    X8       -9.03892   0.00038   0.00000  -0.01318  -0.01635  -9.05527
    Y8        0.63118   0.00251   0.00000  -0.00931  -0.00076   0.63042
    Z8       -1.60993  -0.01158   0.00000  -0.10364  -0.07758  -1.68752
    X9       -8.05915  -0.00652   0.00000  -0.04525  -0.04597  -8.10512
    Y9       -0.79904   0.01236   0.00000   0.05848   0.06645  -0.73259
    Z9       -0.96888   0.01786   0.00000   0.08504   0.10735  -0.86153
   X10       -9.18895  -0.00013   0.00000  -0.02521  -0.02353  -9.21248
   Y10       -1.90801  -0.01172   0.00000  -0.07816  -0.07073  -1.97874
   Z10       -0.01458  -0.00232   0.00000  -0.05776  -0.03302  -0.04760
   X11        3.55475   0.00541   0.00000   0.05086   0.04495   3.59970
   Y11       -0.33763   0.00069   0.00000  -0.02887  -0.01978  -0.35741
   Z11       -2.57426  -0.00783   0.00000  -0.04412  -0.05628  -2.63054
   X12        2.95264   0.00902   0.00000   0.04461   0.04288   2.99552
   Y12       -1.44233   0.00330   0.00000   0.04059   0.04872  -1.39361
   Z12       -1.22679   0.00102   0.00000   0.02186   0.01080  -1.21600
   X13        4.65821  -0.00713   0.00000  -0.01819  -0.01685   4.64136
   Y13       -2.73135  -0.00363   0.00000  -0.00518   0.00222  -2.72913
   Z13       -0.17450   0.00478   0.00000   0.00872  -0.00814  -0.18264
         Item               Value     Threshold  Converged?
 Maximum Force            0.017939     0.000450     NO 
 RMS     Force            0.007495     0.000300     NO 
 Maximum Displacement     0.107763     0.001800     NO 
 RMS     Displacement     0.046528     0.001200     NO 
 Predicted change in Energy=-8.745986D-03
 GradGradGradGradGradGradGradGradGradGradGradGradGradGradGradGradGradGrad

 Leave Link  103 at Wed May 11 21:24:43 2022, MaxMem= 67108864000 cpu:               2.8 elap:               0.1
 (Enter /cm/shared/apps/gaussian/intel/EM64T/SSE4_2-enabled/binary//g16/l9999.exe)

 ----------------------------------------------------------------------

 Electric dipole moment (input orientation):
 (Debye = 10**-18 statcoulomb cm , SI units = C m)
                  (au)            (Debye)         (10**-30 SI)
   Tot        0.330950D+00      0.841190D+00      0.280591D+01
   x         -0.726786D-01     -0.184731D+00     -0.616195D+00
   y         -0.322856D+00     -0.820618D+00     -0.273729D+01
   z          0.309221D-02      0.785961D-02      0.262168D-01

 Dipole polarizability, Alpha (input orientation).
 (esu units = cm**3 , SI units = C**2 m**2 J**-1)
 Alpha(0;0):
               (au)            (10**-24 esu)      (10**-40 SI)
   iso        0.445570D+02      0.660267D+01      0.734646D+01
   aniso      0.316284D+02      0.468684D+01      0.521482D+01
   xx         0.641279D+02      0.950277D+01      0.105733D+02
   yx        -0.667778D+01     -0.989545D+00     -0.110102D+01
   yy         0.360336D+02      0.533964D+01      0.594115D+01
   zx        -0.376547D-01     -0.557985D-02     -0.620842D-02
   zy         0.398572D-02      0.590623D-03      0.657157D-03
   zz         0.335095D+02      0.496559D+01      0.552497D+01

 ----------------------------------------------------------------------

 Dipole orientation:
    80         -0.41236561          0.01557984          0.65941497
     1          7.51253655         -1.83115489          3.88550254
     8          6.88551507         -0.70816756          2.55782158
     1          8.26661345         -0.35823035          1.38026128
     1         -5.80544463          1.33589071          1.63594149
     8         -3.67326481          1.93600827          0.75759313
     1         -3.71033045          3.33163843         -0.44631615
     1         -9.09455452          0.38402539          1.35421567
     8         -7.71725008          0.71974103          2.54028404
     1         -8.34812425          1.82716449          3.87915745
     1          2.89124241         -3.28509460         -0.47532479
     8          2.84828939         -1.90588677          0.74717138
     1          4.97705672         -1.31497718          1.63995034

 Electric dipole moment (dipole orientation):
 (Debye = 10**-18 statcoulomb cm , SI units = C m)
                  (au)            (Debye)         (10**-30 SI)
   Tot        0.330950D+00      0.841190D+00      0.280591D+01
   x          0.000000D+00      0.000000D+00      0.000000D+00
   y          0.000000D+00      0.000000D+00      0.000000D+00
   z          0.330950D+00      0.841190D+00      0.280591D+01

 Dipole polarizability, Alpha (dipole orientation).
 (esu units = cm**3 , SI units = C**2 m**2 J**-1)
 Alpha(0;0):
               (au)            (10**-24 esu)      (10**-40 SI)
   iso        0.445570D+02      0.660267D+01      0.734646D+01
   aniso      0.316284D+02      0.468684D+01      0.521482D+01
   xx         0.640688D+02      0.949401D+01      0.105635D+02
   yx        -0.691699D+01     -0.102499D+01     -0.114046D+01
   yy         0.350751D+02      0.519759D+01      0.578310D+01
   zx         0.125007D-01      0.185241D-02      0.206108D-02
   zy        -0.807043D-02     -0.119592D-02     -0.133063D-02
   zz         0.345272D+02      0.511640D+01      0.569276D+01

 ----------------------------------------------------------------------
 1\1\GINC-CTCP002\Freq\RMP2-Full\SDDAll\H8Hg1O4(2+)\FLOREZ\11-May-2022\
 0\\#p MP2(full) SDDAll freq\\file 'w4s1.log' Now we use Def2-QZVPPD, b
 ut it was opt at: ---' #p ZORA-SR+SO PBE QZ4P'---\\2,1\Hg,-0.286169,-0
 .293626,-0.036618\H,3.539651,-2.904989,-0.05306\O,3.251857,-2.11522,0.
 447235\H,4.045323,-1.651867,0.782561\H,-3.265482,-0.152087,0.023069\O,
 -2.156423,0.080004,0.57631\H,-2.191949,0.747856,1.286524\H,-4.783189,0
 .334006,-0.85194\O,-4.264716,-0.422834,-0.51271\H,-4.862585,-1.009673,
 -0.007713\H,1.881093,-0.178666,-1.36224\O,1.562471,-0.763246,-0.649191
 \H,2.465021,-1.445369,-0.092343\\Version=ES64L-G16RevA.03\State=1-A\HF
 =-219.5582204\MP2=-220.2155592\RMSD=9.584e-09\RMSF=7.495e-03\ZeroPoint
 =0.094903\Thermal=0.1026538\Dipole=-0.0726786,-0.3228559,0.0030922\Dip
 oleDeriv=1.8620193,-0.2023258,-0.2325408,-0.2026879,1.01468,0.0526688,
 -0.3911265,0.0884524,1.0420103,0.3765896,0.0381276,-0.0330617,-0.03631
 18,0.5197089,-0.0219924,-0.0396679,-0.0410429,0.4226378,-1.01568,0.297
 1739,-0.1219013,0.4414864,-0.8037539,0.2009392,-0.3462837,0.2927724,-0
 .7181126,0.4217488,0.0155609,-0.002985,0.0459944,0.3690315,-0.0071702,
 0.0642835,-0.011965,0.5170187,1.9721388,0.1837119,0.4205836,0.3993536,
 0.3856401,0.0859543,0.8289358,0.075407,0.5487098,-1.6300742,-0.009315,
 -0.0917228,0.018581,-0.6170452,0.0291464,-0.1298464,0.0204649,-0.69803
 12,0.2064586,0.0089509,0.0072142,-0.09853,0.3792885,-0.0308829,-0.1056
 94,-0.0299052,0.4044347,0.3882918,-0.0247233,0.0007682,-0.0547307,0.40
 26556,0.0085774,0.0637621,-0.0159914,0.5170244,-1.2642798,-0.0802186,-
 0.1948558,-0.226233,-0.558065,-0.1298558,-0.4357829,-0.1166548,-0.7155
 39,0.402168,0.017643,-0.02053,0.0920476,0.4946145,0.0334752,-0.018817,
 0.0536373,0.4222176,0.2730415,0.0415934,0.0196607,0.1485731,0.3129654,
 0.0251057,-0.0832019,0.0727888,0.4041231,-1.4470524,0.403499,-0.096956
 3,0.3749902,-0.7992928,0.0133867,-0.1277966,0.0376825,-0.6984459,1.454
 6298,-0.6896779,0.3463271,-0.9025331,0.8995723,-0.2593525,0.7212355,-0
 .4256459,0.5519522\Polar=64.1278851,-6.6777788,36.0336475,-0.0376547,0
 .0039857,33.5094751\PG=C01 [X(H8Hg1O4)]\NImag=4\\0.40159355,-0.0832578
 5,0.05328653,-0.12640728,0.02867637,0.08200681,-0.00017536,0.00082733,
 -0.00010158,0.08734701,0.00140620,0.00029455,-0.00040409,-0.10042795,0
 .34127525,0.00000575,-0.00002834,0.00002620,-0.04417743,0.19956554,0.1
 3892753,0.00639929,-0.00007939,-0.00490164,-0.09985434,0.08246619,0.03
 477333,0.51295457,-0.00566863,-0.00112408,0.00506290,0.12609396,-0.318
 13586,-0.19614898,0.00413994,0.56064948,0.00359547,0.00141127,-0.00513
 548,0.05357514,-0.17600918,-0.14501563,0.12536156,0.25049291,0.2789426
 2,-0.00108791,0.00022416,-0.00012737,0.01118583,0.01212604,0.01088601,
 -0.32961336,-0.16190820,-0.14597528,0.32807305,0.00018871,0.00014862,0
 .00057543,-0.03767737,-0.01451101,-0.01474639,-0.13330786,-0.15730839,
 -0.08647870,0.16085342,0.15777991,-0.00077165,0.00031396,0.00093933,-0
 .02244902,-0.01517313,-0.00370511,-0.10427569,-0.07573982,-0.07626079,
 0.13772202,0.09552951,0.08167423,-0.01474965,0.00685108,0.00941993,-0.
 00018427,0.00067312,0.00013380,0.00263200,-0.00230038,0.00162927,-0.00
 053188,-0.00002344,-0.00027278,0.04366797,-0.00025509,0.00329894,0.004
 94131,0.00000751,0.00020863,0.00002432,0.00062736,-0.00064805,0.000437
 06,-0.00011331,0.00001653,-0.00006292,-0.00836332,0.08549145,0.0015456
 0,0.00570456,0.00905450,-0.00007940,0.00034766,0.00009823,0.00133718,-
 0.00116572,0.00081659,-0.00026829,-0.00002059,-0.00010112,-0.02005514,
 -0.00696314,0.06686648,-0.18198507,0.02370016,0.04067613,0.00014169,-0
 .00075429,-0.00011923,-0.00288699,0.00243240,-0.00193461,0.00053634,0.
 00010706,0.00035260,-0.00702661,0.02094385,0.02381851,0.30335539,0.041
 21396,-0.02940723,-0.02021412,-0.00010449,-0.00004857,0.00005100,0.000
 15630,-0.00007674,-0.00009775,-0.00008048,-0.00003696,-0.00006620,0.00
 222553,-0.03543363,-0.01058682,-0.03586925,0.28197069,0.05750608,-0.01
 812663,-0.04428385,0.00004086,0.00009218,-0.00000876,0.00081216,-0.000
 87190,0.00086872,0.00000795,-0.00011213,-0.00023672,0.00842288,-0.0035
 7073,-0.03410149,-0.03276554,0.27320025,0.34502101,-0.00927566,0.01608
 034,0.01879246,-0.00000136,0.00001045,0.00000522,-0.00015236,0.0001586
 6,-0.00020993,-0.00002327,0.00004984,0.00007697,0.01876770,-0.01106600
 ,-0.00752981,-0.04721605,0.01141437,0.00723802,0.05124500,-0.00153899,
 0.00023263,-0.00181115,0.00005636,-0.00006046,-0.00003818,-0.00044391,
 0.00030573,-0.00021715,0.00009441,0.00005278,0.00003716,0.00360867,-0.
 00017067,-0.00078069,0.01326092,-0.23186008,-0.24286384,-0.01440199,0.
 23021804,0.00101829,-0.00513010,-0.00162800,0.00003648,-0.00010864,0.0
 0003974,-0.00049148,0.00042327,-0.00046998,0.00005179,0.00002165,0.000
 14403,0.00516987,-0.00743411,-0.00226911,0.01081330,-0.23362229,-0.266
 35519,-0.01330206,0.24573589,0.26951963,-0.00102161,0.00032846,-0.0003
 6056,-0.00002656,0.00004840,0.00000193,0.00021121,-0.00017003,0.000134
 28,-0.00004379,-0.00000474,-0.00003240,-0.00040183,0.02371447,-0.00265
 650,-0.00257277,-0.00408595,-0.00097037,-0.00106380,0.00011247,-0.0009
 2065,0.17235077,0.00036089,0.00007827,-0.00046044,0.00003333,-0.000006
 29,-0.00000227,-0.00013064,0.00006812,-0.00007360,0.00003349,0.0000172
 3,0.00001939,0.00585499,0.01183969,-0.00125355,-0.00637171,-0.00288431
 ,-0.00174044,-0.00085565,0.00019592,-0.00075997,-0.16737465,0.31199357
 ,-0.00083033,0.00005198,0.00094412,-0.00001865,0.00002866,0.00003903,0
 .00013820,-0.00009531,0.00002528,-0.00003771,-0.00000357,0.00001820,-0
 .00763562,0.01008903,-0.00178676,0.00140078,-0.00138377,-0.00041709,-0
 .00113503,0.00007925,-0.00033973,0.08432541,-0.14656334,0.08322428,0.0
 0723272,-0.00394347,-0.00659691,0.00012227,-0.00037066,-0.00006617,-0.
 00148441,0.00127019,-0.00092864,0.00030197,0.00002074,0.00016538,-0.03
 948854,-0.01309622,-0.01624484,-0.07030719,-0.01701933,-0.03621554,-0.
 01014019,0.00004972,-0.00164486,-0.18377441,0.14561529,-0.06244037,0.5
 1862525,0.00170291,-0.00199895,-0.00249180,-0.00003019,-0.00014877,-0.
 00002217,-0.00036940,0.00042340,-0.00026006,0.00006018,-0.00002189,0.0
 0002700,0.00096377,-0.06453154,0.01449764,-0.02070421,0.01145218,-0.00
 876995,0.00043995,0.00052640,0.00093461,0.17395089,-0.30186597,0.11430
 940,0.01540424,0.55163559,0.00260846,-0.00282913,-0.00509275,0.0000438
 4,-0.00019095,-0.00008668,-0.00072215,0.00062576,-0.00038303,0.0001519
 8,0.00000902,0.00002458,0.00711664,0.01362545,-0.05011543,-0.04125139,
 -0.00836976,-0.00306025,-0.00216079,0.00037223,-0.00003726,-0.09566965
 ,0.14194148,-0.07760301,0.00529612,-0.28187103,0.28244426,-0.00095530,
 -0.00023377,0.00008469,-0.00004719,0.00003882,0.00000955,0.00022771,-0
 .00014779,0.00012211,-0.00005453,-0.00001059,-0.00002894,-0.00425261,-
 0.01277718,0.01931034,-0.00167959,0.00075247,-0.00364292,-0.00066250,-
 0.00019704,-0.00021349,0.01636519,0.02294071,-0.01394806,-0.22043545,-
 0.17123663,0.12510035,0.21146879,-0.00081116,0.00107637,0.00040362,0.0
 0002765,0.00009255,0.00000313,0.00019150,-0.00025289,0.00015456,-0.000
 02549,0.00002158,-0.00001773,-0.00975670,-0.00050768,0.00076111,0.0043
 8238,-0.00046288,0.00104826,-0.00054880,0.00008093,-0.00001394,-0.0266
 4392,-0.01947373,0.02347351,-0.12771720,-0.19530341,0.13656674,0.16079
 622,0.21470144,0.00002382,0.00001681,0.00002362,0.00000723,-0.00000739
 ,0.00003193,-0.00005204,0.00004980,-0.00008822,0.00000303,0.00000135,0
 .00003921,-0.00019306,-0.00952897,0.01390523,-0.00493084,0.00070443,-0
 .00442005,-0.00098020,-0.00070771,0.00019862,0.01629037,0.00870400,-0.
 00390914,0.11647974,0.16289050,-0.14729690,-0.12664930,-0.16208133,0.1
 4138394,-0.01314105,-0.00961908,0.01779671,-0.00023615,0.00069542,-0.0
 0058400,-0.00836842,0.00376419,-0.00213264,-0.00054646,0.00120249,-0.0
 0106747,-0.00011109,0.00011908,0.00012391,0.00000207,0.00135048,-0.000
 93688,-0.00027808,0.00021981,0.00000544,-0.00006500,0.00000655,0.00005
 367,0.00004262,-0.00003419,-0.00009604,-0.00003805,-0.00002093,0.00002
 133,0.09531731,0.00792879,0.00410270,-0.00648311,0.00034515,-0.0003369
 6,0.00106108,0.00416299,-0.00123866,0.00059678,0.00023604,-0.00031663,
 0.00041712,-0.00090464,-0.00031678,-0.00054967,0.00188368,-0.00054555,
 0.00067326,0.00003177,0.00025070,0.00005148,-0.00003830,0.00009398,-0.
 00006633,0.00056625,0.00011187,0.00028198,-0.00006649,-0.00002311,0.00
 003269,0.07786134,0.18401011,0.00310523,0.00417887,-0.00163662,-0.0001
 8842,0.00010727,0.00019380,-0.00190746,-0.00013816,-0.00003958,-0.0005
 0949,0.00108177,-0.00034813,0.00121232,0.00021030,0.00072293,-0.001644
 81,0.00011190,0.00063226,-0.00001713,-0.00005096,-0.00015981,0.0000379
 5,-0.00004149,0.00014442,-0.00062935,-0.00017461,-0.00046882,0.0000800
 1,0.00008278,0.00003881,-0.11783172,-0.21583934,0.27164846,-0.17885286
 ,0.04772375,0.04532634,-0.00345262,-0.00299590,-0.00473785,-0.04067340
 ,0.04525496,-0.03392246,0.00142841,0.00433650,0.00182964,0.00647314,0.
 00147116,0.00305097,0.00389589,0.00012398,0.00185589,-0.00135736,-0.00
 150585,-0.00152437,0.00042085,-0.00032230,0.00034777,-0.00337515,-0.00
 087638,-0.00169219,0.00043916,0.00052135,-0.00013392,-0.09074775,-0.07
 972493,0.11037454,0.32700955,0.03026735,-0.03242653,0.00067663,0.00064
 429,0.00131624,0.00144377,0.04160787,-0.01792247,0.02532679,0.00204021
 ,-0.00686301,0.00068940,-0.00281817,-0.00033594,-0.00198505,0.00132258
 ,0.00692428,-0.00065469,-0.00097019,0.00081164,0.00060493,-0.00013645,
 0.00007921,-0.00009305,0.00141888,0.00041717,0.00091829,-0.00012724,-0
 .00034690,0.00000774,-0.07788770,-0.18624778,0.20596352,0.01356277,0.2
 5582613,0.05967975,-0.00845648,-0.04435617,-0.00374354,0.00058098,-0.0
 0442587,-0.02917326,0.02351450,-0.00331909,-0.00014163,0.00202572,-0.0
 0043613,-0.00194344,-0.00095995,-0.00142197,0.00195759,-0.00020000,0.0
 0780217,-0.00112960,-0.00020431,0.00063325,0.00005527,0.00009639,-0.00
 023723,0.00110422,0.00044264,0.00085949,-0.00000231,-0.00009928,-0.000
 00797,0.11113405,0.21591139,-0.26840687,-0.14698552,-0.23218773,0.3474
 1593,-0.01398110,0.00139828,0.00639908,0.00518103,0.00708416,0.0038690
 8,-0.03939151,-0.01291927,0.00068571,-0.00962439,0.00426523,-0.0112486
 3,-0.00479434,-0.00121231,-0.00235254,0.00574288,-0.00007757,-0.001352
 60,0.00015792,0.00068544,0.00100174,-0.00037825,0.00020971,-0.00022005
 ,0.00268050,0.00072905,0.00127484,-0.00037563,-0.00039488,0.00011384,0
 .01817005,-0.01228165,0.00791833,-0.02120787,-0.00892422,0.00918843,0.
 05782072,0.00846292,0.00243819,-0.00847154,0.01020442,-0.00993929,0.00
 883750,0.00097905,-0.06473958,-0.01528292,-0.01354046,0.02102124,-0.00
 597374,0.00398949,0.00108906,0.00199426,-0.00433357,0.00040881,0.00169
 636,-0.00034275,-0.00058357,-0.00070279,0.00029936,-0.00013568,0.00017
 354,-0.00219844,-0.00069606,-0.00108007,0.00026852,0.00039774,-0.00008
 191,0.00234254,0.00045612,0.00450814,-0.02756910,-0.02123205,-0.000463
 88,0.02143802,0.07151508,-0.00107919,-0.00578312,0.00913829,0.01705451
 ,-0.00882891,0.01388557,-0.02089872,-0.00600924,-0.04994142,-0.0017629
 9,0.00211693,-0.00175158,-0.00300468,-0.00080764,-0.00166808,0.0036275
 2,0.00047313,-0.00144077,0.00035190,0.00044946,0.00072381,-0.00023509,
 0.00013383,-0.00010237,0.00172122,0.00048781,0.00081580,-0.00022202,-0
 .00028142,0.00010092,-0.00648636,0.00391266,-0.00232086,0.02621116,-0.
 00071055,-0.03409955,-0.01527724,0.01484707,0.06666023\\0.00159439,0.0
 0706814,-0.00001120,0.00491946,0.01064302,-0.00239678,-0.01119253,-0.0
 0824964,0.01793915,-0.00073565,-0.00250149,-0.01156775,-0.00486681,0.0
 0637018,0.00474637,0.00672036,-0.00682398,0.00101667,0.00458217,-0.003
 00088,-0.00780237,-0.00037825,-0.00250713,0.01157935,0.00652405,-0.012
 35783,-0.01785575,0.00012519,0.01172466,0.00232240,-0.00540750,-0.0006
 9486,0.00783475,-0.00901898,-0.00330027,-0.00102375,0.00713410,0.00363
 008,-0.00478110\\\@


 MOST BUREAUCRACIES FUNCTION LIKE A SEPTIC TANK.
 THE LARGE CHUNKS RISE TO THE TOP.
 Job cpu time:       0 days  0 hours 17 minutes 19.3 seconds.
 Elapsed time:       0 days  0 hours  0 minutes 38.0 seconds.
 File lengths (MBytes):  RWF=   1059 Int=      0 D2E=      0 Chk=      3 Scr=      1
 Normal termination of Gaussian 16 at Wed May 11 21:24:44 2022.
