 Entering Gaussian System, Link 0=g16
 Initial command:
 /cm/shared/apps/gaussian/intel/EM64T/SSE4_2-enabled/binary//g16/l1.exe "/scratch/florez/25750/Gau-23895.inp" -scrdir="/scratch/florez/25750/"
 Entering Link 1 = /cm/shared/apps/gaussian/intel/EM64T/SSE4_2-enabled/binary//g16/l1.exe PID=     23898.
  
 Copyright (c) 1988,1990,1992,1993,1995,1998,2003,2009,2016,
            Gaussian, Inc.  All Rights Reserved.
  
 This is part of the Gaussian(R) 16 program.  It is based on
 the Gaussian(R) 09 system (copyright 2009, Gaussian, Inc.),
 the Gaussian(R) 03 system (copyright 2003, Gaussian, Inc.),
 the Gaussian(R) 98 system (copyright 1998, Gaussian, Inc.),
 the Gaussian(R) 94 system (copyright 1995, Gaussian, Inc.),
 the Gaussian 92(TM) system (copyright 1992, Gaussian, Inc.),
 the Gaussian 90(TM) system (copyright 1990, Gaussian, Inc.),
 the Gaussian 88(TM) system (copyright 1988, Gaussian, Inc.),
 the Gaussian 86(TM) system (copyright 1986, Carnegie Mellon
 University), and the Gaussian 82(TM) system (copyright 1983,
 Carnegie Mellon University). Gaussian is a federally registered
 trademark of Gaussian, Inc.
  
 This software contains proprietary and confidential information,
 including trade secrets, belonging to Gaussian, Inc.
  
 This software is provided under written license and may be
 used, copied, transmitted, or stored only in accord with that
 written license.
  
 The following legend is applicable only to US Government
 contracts under FAR:
  
                    RESTRICTED RIGHTS LEGEND
  
 Use, reproduction and disclosure by the US Government is
 subject to restrictions as set forth in subparagraphs (a)
 and (c) of the Commercial Computer Software - Restricted
 Rights clause in FAR 52.227-19.
  
 Gaussian, Inc.
 340 Quinnipiac St., Bldg. 40, Wallingford CT 06492
  
  
 ---------------------------------------------------------------
 Warning -- This program may not be used in any manner that
 competes with the business of Gaussian, Inc. or will provide
 assistance to any competitor of Gaussian, Inc.  The licensee
 of this program is prohibited from giving any competitor of
 Gaussian, Inc. access to this program.  By using this program,
 the user acknowledges that Gaussian, Inc. is engaged in the
 business of creating and licensing software in the field of
 computational chemistry and represents and warrants to the
 licensee that it is not a competitor of Gaussian, Inc. and that
 it will not use this program in any manner prohibited above.
 ---------------------------------------------------------------
  

 Cite this work as:
 Gaussian 16, Revision A.03,
 M. J. Frisch, G. W. Trucks, H. B. Schlegel, G. E. Scuseria, 
 M. A. Robb, J. R. Cheeseman, G. Scalmani, V. Barone, 
 G. A. Petersson, H. Nakatsuji, X. Li, M. Caricato, A. V. Marenich, 
 J. Bloino, B. G. Janesko, R. Gomperts, B. Mennucci, H. P. Hratchian, 
 J. V. Ortiz, A. F. Izmaylov, J. L. Sonnenberg, D. Williams-Young, 
 F. Ding, F. Lipparini, F. Egidi, J. Goings, B. Peng, A. Petrone, 
 T. Henderson, D. Ranasinghe, V. G. Zakrzewski, J. Gao, N. Rega, 
 G. Zheng, W. Liang, M. Hada, M. Ehara, K. Toyota, R. Fukuda, 
 J. Hasegawa, M. Ishida, T. Nakajima, Y. Honda, O. Kitao, H. Nakai, 
 T. Vreven, K. Throssell, J. A. Montgomery, Jr., J. E. Peralta, 
 F. Ogliaro, M. J. Bearpark, J. J. Heyd, E. N. Brothers, K. N. Kudin, 
 V. N. Staroverov, T. A. Keith, R. Kobayashi, J. Normand, 
 K. Raghavachari, A. P. Rendell, J. C. Burant, S. S. Iyengar, 
 J. Tomasi, M. Cossi, J. M. Millam, M. Klene, C. Adamo, R. Cammi, 
 J. W. Ochterski, R. L. Martin, K. Morokuma, O. Farkas, 
 J. B. Foresman, and D. J. Fox, Gaussian, Inc., Wallingford CT, 2016.
 
 ******************************************
 Gaussian 16:  ES64L-G16RevA.03 25-Dec-2016
                11-May-2022 
 ******************************************
 %chk=w4s3.chk
 %nproc=28
 Will use up to   28 processors via shared memory.
 %mem=500gb
 ------------------------
 #p MP2(full) SDDAll freq
 ------------------------
 1/10=4,30=1,38=1/1,3;
 2/12=2,17=6,18=5,40=1/2;
 3/5=17,6=6,11=9,25=1,30=1,71=2,140=1/1,2,3;
 4//1;
 5/5=2,38=5,98=1/2;
 8/6=3,8=1,10=90,19=11/1;
 9/15=3,16=-3/6;
 11/6=1,8=1,15=11,17=11,24=-1,27=1,28=-2,29=300,32=6,42=3/1,2,10;
 10/6=2,21=1/2;
 8/6=4,8=1,10=90,19=11/11,4;
 10/5=1,20=4/2;
 11/12=2,14=11,16=1,28=-2,42=3/2,10,12;
 6/7=2,8=2,9=2,10=2/1;
 7/8=1,10=1,12=2,25=1,44=2/1,2,3,16;
 1/10=4,30=1/3;
 99//99;
 Leave Link    1 at Wed May 11 21:25:22 2022, MaxMem= 67108864000 cpu:               1.0 elap:               0.0
 (Enter /cm/shared/apps/gaussian/intel/EM64T/SSE4_2-enabled/binary//g16/l101.exe)
 ----------------------------------------------------------------------
 file 'w4s3.log' Now we use Def2-QZVPPD, but it was opt at: ---' #p ZOR
 A-SR+SO PBE QZ4P'---
 ----------------------------------------------------------------------
 Symbolic Z-matrix:
 Charge =  2 Multiplicity = 1
 Hg(Fragment=1)        1.22265  -0.04283   0.01637 
 H(Fragment=2)         3.82445   0.10528  -0.6672 
 O(Fragment=2)         3.30009  -0.16826   0.11596 
 H(Fragment=2)         3.75424   0.15911   0.9218 
 H(Fragment=2)        -1.27539   0.94928   0.00516 
 O(Fragment=2)        -0.74387  -0.01776  -0.12609 
 H(Fragment=2)        -1.29964  -0.9771    0.00529 
 H(Fragment=2)        -2.39422   2.37436   0.87399 
 O(Fragment=2)        -1.86108   2.1495    0.0894 
 H(Fragment=2)        -2.34015   2.48415  -0.69125 
 H(Fragment=2)        -2.44089  -2.37395   0.87245 
 O(Fragment=2)        -1.90394  -2.15864   0.08767 
 H(Fragment=2)        -2.38781  -2.48408  -0.69403 
 
 ITRead=  0  0  0  0  0  0  0  0  0  0  0  0  0
 MicOpt= -1 -1 -1 -1 -1 -1 -1 -1 -1 -1 -1 -1 -1
 NAtoms=     13 NQM=       13 NQMF=       0 NMMI=      0 NMMIF=      0
                NMic=       0 NMicF=      0.
                    Isotopes and Nuclear Properties:
 (Nuclear quadrupole moments (NQMom) in fm**2, nuclear magnetic moments (NMagM)
  in nuclear magnetons)

  Atom         1           2           3           4           5           6           7           8           9          10
 IAtWgt=         202           1          16           1           1          16           1           1          16           1
 AtmWgt= 201.9706000   1.0078250  15.9949146   1.0078250   1.0078250  15.9949146   1.0078250   1.0078250  15.9949146   1.0078250
 NucSpn=           0           1           0           1           1           0           1           1           0           1
 AtZEff=  -0.0000000  -0.0000000  -0.0000000  -0.0000000  -0.0000000  -0.0000000  -0.0000000  -0.0000000  -0.0000000  -0.0000000
 NQMom=    0.0000000   0.0000000   0.0000000   0.0000000   0.0000000   0.0000000   0.0000000   0.0000000   0.0000000   0.0000000
 NMagM=    0.0000000   2.7928460   0.0000000   2.7928460   2.7928460   0.0000000   2.7928460   2.7928460   0.0000000   2.7928460
 AtZNuc=  80.0000000   1.0000000   8.0000000   1.0000000   1.0000000   8.0000000   1.0000000   1.0000000   8.0000000   1.0000000

  Atom        11          12          13
 IAtWgt=           1          16           1
 AtmWgt=   1.0078250  15.9949146   1.0078250
 NucSpn=           1           0           1
 AtZEff=  -0.0000000  -0.0000000  -0.0000000
 NQMom=    0.0000000   0.0000000   0.0000000
 NMagM=    2.7928460   0.0000000   2.7928460
 AtZNuc=   1.0000000   8.0000000   1.0000000
 Leave Link  101 at Wed May 11 21:25:22 2022, MaxMem= 67108864000 cpu:               2.2 elap:               0.1
 (Enter /cm/shared/apps/gaussian/intel/EM64T/SSE4_2-enabled/binary//g16/l103.exe)

 GradGradGradGradGradGradGradGradGradGradGradGradGradGradGradGradGradGrad
 Berny optimization.
 Initialization pass.
 Trust Radius=3.00D-01 FncErr=1.00D-07 GrdErr=1.00D-07 EigMax=2.50D+02 EigMin=1.00D-04
 Number of steps in this run=      2 maximum allowed number of steps=      2.
 GradGradGradGradGradGradGradGradGradGradGradGradGradGradGradGradGradGrad

 Leave Link  103 at Wed May 11 21:25:23 2022, MaxMem= 67108864000 cpu:               0.5 elap:               0.0
 (Enter /cm/shared/apps/gaussian/intel/EM64T/SSE4_2-enabled/binary//g16/l202.exe)
                          Input orientation:                          
 ---------------------------------------------------------------------
 Center     Atomic      Atomic             Coordinates (Angstroms)
 Number     Number       Type             X           Y           Z
 ---------------------------------------------------------------------
      1         80           0        1.222645   -0.042832    0.016366
      2          1           0        3.824445    0.105276   -0.667197
      3          8           0        3.300085   -0.168255    0.115955
      4          1           0        3.754236    0.159106    0.921798
      5          1           0       -1.275385    0.949284    0.005164
      6          8           0       -0.743865   -0.017758   -0.126090
      7          1           0       -1.299642   -0.977095    0.005291
      8          1           0       -2.394216    2.374358    0.873990
      9          8           0       -1.861075    2.149505    0.089397
     10          1           0       -2.340150    2.484150   -0.691248
     11          1           0       -2.440889   -2.373946    0.872452
     12          8           0       -1.903936   -2.158637    0.087668
     13          1           0       -2.387812   -2.484081   -0.694031
 ---------------------------------------------------------------------
                    Distance matrix (angstroms):
                    1          2          3          4          5
     1  Hg   0.000000
     2  H    2.694171   0.000000
     3  O    2.083604   0.981376   0.000000
     4  H    2.696208   1.591456   0.981224   0.000000
     5  H    2.687857   5.212743   4.711273   5.173170   0.000000
     6  O    1.971823   4.601890   4.053982   4.621933   1.111266
     7  H    2.689777   5.280155   4.671612   5.260477   1.926532
     8  H    4.433961   6.796744   6.282083   6.535525   2.009347
     9  O    3.784310   6.089043   5.657764   6.015505   1.338155
    10  H    4.424914   6.607712   6.284829   6.719322   1.993622
    11  H    4.425885   6.911691   6.196462   6.693158   3.626906
    12  O    3.775874   6.205600   5.571737   6.171111   3.171917
    13  H    4.415853   6.730351   6.194457   6.879106   3.676189
                    6          7          8          9         10
     6  O    0.000000
     7  H    1.116457   0.000000
     8  H    3.073441   3.631111   0.000000
     9  O    2.447779   3.177721   0.974877   0.000000
    10  H    3.021105   3.680766   1.570015   0.975144   0.000000
    11  H    3.070602   2.001401   4.748534   4.627199   5.104547
    12  O    2.444345   1.329661   4.626740   4.308356   4.727839
    13  H    3.017924   1.985994   5.105209   4.728777   4.968460
                   11         12         13
    11  H    0.000000
    12  O    0.974968   0.000000
    13  H    1.571247   0.975245   0.000000
 Stoichiometry    H8HgO4(2+)
 Framework group  C1[X(H8HgO4)]
 Deg. of freedom    33
 Full point group                 C1      NOp   1
 Largest Abelian subgroup         C1      NOp   1
 Largest concise Abelian subgroup C1      NOp   1
                         Standard orientation:                         
 ---------------------------------------------------------------------
 Center     Atomic      Atomic             Coordinates (Angstroms)
 Number     Number       Type             X           Y           Z
 ---------------------------------------------------------------------
      1         80           0       -0.526081   -0.006506   -0.011734
      2          1           0       -3.123595   -0.202447   -0.699547
      3          8           0       -2.605646    0.080323    0.084589
      4          1           0       -3.054933   -0.255851    0.889530
      5          1           0        1.989929   -0.952130   -0.019452
      6          8           0        1.440780    0.004964   -0.151049
      7          1           0        1.978464    0.974367   -0.018271
      8          1           0        3.133605   -2.356699    0.850416
      9          8           0        2.597638   -2.141332    0.065088
     10          1           0        3.084079   -2.466603   -0.714964
     11          1           0        3.092232    2.391655    0.851455
     12          8           0        2.560614    2.166864    0.065697
     13          1           0        3.039618    2.501658   -0.715053
 ---------------------------------------------------------------------
 Rotational constants (GHZ):           2.8272908           1.0600312           0.7815166
 Leave Link  202 at Wed May 11 21:25:23 2022, MaxMem= 67108864000 cpu:               1.5 elap:               0.1
 (Enter /cm/shared/apps/gaussian/intel/EM64T/SSE4_2-enabled/binary//g16/l301.exe)
 Standard basis: SDDAll (6D, 10F)
 Ernie: Thresh=  0.10000D-02 Tol=  0.10000D-05 Strict=F.
 There are    99 symmetry adapted cartesian basis functions of A   symmetry.
 There are    99 symmetry adapted basis functions of A   symmetry.
    99 basis functions,   173 primitive gaussians,    99 cartesian basis functions
    25 alpha electrons       25 beta electrons
       nuclear repulsion energy       203.1187427641 Hartrees.
 IExCor=    0 DFT=F Ex=HF Corr=None ExCW=0 ScaHFX=  1.000000
 ScaDFX=  1.000000  1.000000  1.000000  1.000000 ScalE2=  1.000000  1.000000
 IRadAn=      5 IRanWt=     -1 IRanGd=            0 ICorTp=0 IEmpDi=  4
 NAtoms=   13 NActive=   13 NUniq=   13 SFac= 1.00D+00 NAtFMM=   60 NAOKFM=F Big=F
 Integral buffers will be    131072 words long.
 Raffenetti 1 integral format.
 Two-electron integral symmetry is turned on.
 Leave Link  301 at Wed May 11 21:25:23 2022, MaxMem= 67108864000 cpu:               1.2 elap:               0.1
 (Enter /cm/shared/apps/gaussian/intel/EM64T/SSE4_2-enabled/binary//g16/l302.exe)
 NPDir=0 NMtPBC=     1 NCelOv=     1 NCel=       1 NClECP=     1 NCelD=      1
         NCelK=      1 NCelE2=     1 NClLst=     1 CellRange=     0.0.
 One-electron integrals computed using PRISM.
 One-electron integral symmetry used in STVInt
   1 Symmetry operations used in ECPInt.
 ECPInt:  NShTT=    1275 NPrTT=    4064 LenC2=    1275 LenP2D=    3322.
 LDataN:  DoStor=T MaxTD1= 7 Len=  274
 NBasis=    99 RedAO= T EigKep=  3.86D-04  NBF=    99
 NBsUse=    99 1.00D-06 EigRej= -1.00D+00 NBFU=    99
 Leave Link  302 at Wed May 11 21:25:23 2022, MaxMem= 67108864000 cpu:               6.8 elap:               0.3
 (Enter /cm/shared/apps/gaussian/intel/EM64T/SSE4_2-enabled/binary//g16/l303.exe)
 DipDrv:  MaxL=1.
 Leave Link  303 at Wed May 11 21:25:23 2022, MaxMem= 67108864000 cpu:               0.6 elap:               0.0
 (Enter /cm/shared/apps/gaussian/intel/EM64T/SSE4_2-enabled/binary//g16/l401.exe)
 ExpMin= 2.00D-02 ExpMax= 4.71D+01 ExpMxC= 4.71D+01 IAcc=3 IRadAn=         5 AccDes= 0.00D+00
 Harris functional with IExCor=  205 and IRadAn=       5 diagonalized for initial guess.
 HarFok:  IExCor=  205 AccDes= 0.00D+00 IRadAn=         5 IDoV= 1 UseB2=F ITyADJ=14
 ICtDFT=  3500011 ScaDFX=  1.000000  1.000000  1.000000  1.000000
 Defaulting to unpruned grid for atomic number  80.
 FoFCou: FMM=F IPFlag=           0 FMFlag=      100000 FMFlg1=           0
         NFxFlg=           0 DoJE=T BraDBF=F KetDBF=T FulRan=T
         wScrn=  0.000000 ICntrl=       500 IOpCl=  0 I1Cent=   200000004 NGrid=           0
         NMat0=    1 NMatS0=      1 NMatT0=    0 NMatD0=    1 NMtDS0=    0 NMtDT0=    0
 Petite list used in FoFCou.
 Harris En= -222.498404042503    
 JPrj=0 DoOrth=F DoCkMO=F.
 Leave Link  401 at Wed May 11 21:25:23 2022, MaxMem= 67108864000 cpu:               6.7 elap:               0.3
 (Enter /cm/shared/apps/gaussian/intel/EM64T/SSE4_2-enabled/binary//g16/l502.exe)
 Integral symmetry usage will be decided dynamically.
 Closed shell SCF:
 Using DIIS extrapolation, IDIIS=  1040.
 NGot= 67108864000 LenX= 67108840334 LenY= 67108830092
 Requested convergence on RMS density matrix=1.00D-08 within 128 cycles.
 Requested convergence on MAX density matrix=1.00D-06.
 Requested convergence on             energy=1.00D-06.
 No special actions if energy rises.
 Fock matrices will be formed incrementally for  20 cycles.

 Cycle   1  Pass 0  IDiag  1:
 FoFJK:  IHMeth= 1 ICntrl=       0 DoSepK=F KAlg= 0 I1Cent=           0 FoldK=F
 IRaf= 970000000 NMat=       1 IRICut=       1 DoRegI=T DoRafI=F ISym2E= 0 IDoP0=0 IntGTp=1.
 FoFCou: FMM=F IPFlag=           0 FMFlag=      100000 FMFlg1=           0
         NFxFlg=           0 DoJE=F BraDBF=F KetDBF=F FulRan=T
         wScrn=  0.000000 ICntrl=         0 IOpCl=  0 I1Cent=           0 NGrid=           0
         NMat0=    1 NMatS0=      1 NMatT0=    0 NMatD0=    1 NMtDS0=    0 NMtDT0=    0
 Symmetry not used in FoFCou.
 E= -219.120555774197    
 DIIS: error= 6.38D-02 at cycle   1 NSaved=   1.
 NSaved= 1 IEnMin= 1 EnMin= -219.120555774197     IErMin= 1 ErrMin= 6.38D-02
 ErrMax= 6.38D-02  0.00D+00 EMaxC= 1.00D-01 BMatC= 5.18D-01 BMatP= 5.18D-01
 IDIUse=3 WtCom= 3.62D-01 WtEn= 6.38D-01
 Coeff-Com:  0.100D+01
 Coeff-En:   0.100D+01
 Coeff:      0.100D+01
 Gap=     0.677 Goal=   None    Shift=    0.000
 GapD=    0.677 DampG=2.000 DampE=0.250 DampFc=0.5000 IDamp=-1.
 Damping current iteration by 5.00D-01
 RMSDP=1.01D-02 MaxDP=2.74D-01              OVMax= 2.39D-01

 Cycle   2  Pass 0  IDiag  1:
 RMSU=  4.99D-03    CP:  1.02D+00
 E= -219.350511859390     Delta-E=       -0.229956085193 Rises=F Damp=T
 DIIS: error= 1.57D-02 at cycle   2 NSaved=   2.
 NSaved= 2 IEnMin= 2 EnMin= -219.350511859390     IErMin= 2 ErrMin= 1.57D-02
 ErrMax= 1.57D-02  0.00D+00 EMaxC= 1.00D-01 BMatC= 3.40D-02 BMatP= 5.18D-01
 IDIUse=3 WtCom= 8.43D-01 WtEn= 1.57D-01
 Coeff-Com: -0.235D+00 0.123D+01
 Coeff-En:   0.000D+00 0.100D+01
 Coeff:     -0.198D+00 0.120D+01
 Gap=     0.533 Goal=   None    Shift=    0.000
 RMSDP=3.28D-03 MaxDP=7.96D-02 DE=-2.30D-01 OVMax= 6.82D-02

 Cycle   3  Pass 0  IDiag  1:
 RMSU=  2.80D-03    CP:  1.02D+00  1.34D+00
 E= -219.545319309073     Delta-E=       -0.194807449683 Rises=F Damp=F
 DIIS: error= 4.08D-03 at cycle   3 NSaved=   3.
 NSaved= 3 IEnMin= 3 EnMin= -219.545319309073     IErMin= 3 ErrMin= 4.08D-03
 ErrMax= 4.08D-03  0.00D+00 EMaxC= 1.00D-01 BMatC= 3.64D-03 BMatP= 3.40D-02
 IDIUse=3 WtCom= 9.59D-01 WtEn= 4.08D-02
 Coeff-Com:  0.608D-01-0.143D+00 0.108D+01
 Coeff-En:   0.000D+00 0.000D+00 0.100D+01
 Coeff:      0.583D-01-0.137D+00 0.108D+01
 Gap=     0.536 Goal=   None    Shift=    0.000
 RMSDP=1.28D-03 MaxDP=3.46D-02 DE=-1.95D-01 OVMax= 1.79D-02

 Cycle   4  Pass 0  IDiag  1:
 RMSU=  6.93D-04    CP:  1.01D+00  1.27D+00  1.34D+00
 E= -219.549248224882     Delta-E=       -0.003928915810 Rises=F Damp=F
 DIIS: error= 3.09D-03 at cycle   4 NSaved=   4.
 NSaved= 4 IEnMin= 4 EnMin= -219.549248224882     IErMin= 4 ErrMin= 3.09D-03
 ErrMax= 3.09D-03  0.00D+00 EMaxC= 1.00D-01 BMatC= 6.18D-04 BMatP= 3.64D-03
 IDIUse=3 WtCom= 9.69D-01 WtEn= 3.09D-02
 Coeff-Com:  0.442D-01-0.169D+00 0.338D+00 0.787D+00
 Coeff-En:   0.000D+00 0.000D+00 0.000D+00 0.100D+01
 Coeff:      0.428D-01-0.164D+00 0.328D+00 0.793D+00
 Gap=     0.537 Goal=   None    Shift=    0.000
 RMSDP=4.90D-04 MaxDP=1.15D-02 DE=-3.93D-03 OVMax= 1.32D-02

 Cycle   5  Pass 0  IDiag  1:
 RMSU=  2.85D-04    CP:  1.00D+00  1.27D+00  1.47D+00  1.13D+00
 E= -219.550229124497     Delta-E=       -0.000980899615 Rises=F Damp=F
 DIIS: error= 8.54D-04 at cycle   5 NSaved=   5.
 NSaved= 5 IEnMin= 5 EnMin= -219.550229124497     IErMin= 5 ErrMin= 8.54D-04
 ErrMax= 8.54D-04  0.00D+00 EMaxC= 1.00D-01 BMatC= 5.56D-05 BMatP= 6.18D-04
 IDIUse=3 WtCom= 9.91D-01 WtEn= 8.54D-03
 Coeff-Com: -0.197D-01 0.600D-01-0.146D+00-0.120D+00 0.123D+01
 Coeff-En:   0.000D+00 0.000D+00 0.000D+00 0.000D+00 0.100D+01
 Coeff:     -0.195D-01 0.595D-01-0.145D+00-0.119D+00 0.122D+01
 Gap=     0.531 Goal=   None    Shift=    0.000
 RMSDP=2.53D-04 MaxDP=7.18D-03 DE=-9.81D-04 OVMax= 5.63D-03

 Cycle   6  Pass 0  IDiag  1:
 RMSU=  8.23D-05    CP:  1.00D+00  1.28D+00  1.53D+00  1.32D+00  1.43D+00
 E= -219.550405642789     Delta-E=       -0.000176518292 Rises=F Damp=F
 DIIS: error= 2.70D-04 at cycle   6 NSaved=   6.
 NSaved= 6 IEnMin= 6 EnMin= -219.550405642789     IErMin= 6 ErrMin= 2.70D-04
 ErrMax= 2.70D-04  0.00D+00 EMaxC= 1.00D-01 BMatC= 1.43D-05 BMatP= 5.56D-05
 IDIUse=3 WtCom= 9.97D-01 WtEn= 2.70D-03
 Coeff-Com: -0.123D-01 0.422D-01-0.117D+00-0.156D+00 0.397D+00 0.846D+00
 Coeff-En:   0.000D+00 0.000D+00 0.000D+00 0.000D+00 0.000D+00 0.100D+01
 Coeff:     -0.123D-01 0.421D-01-0.117D+00-0.156D+00 0.396D+00 0.846D+00
 Gap=     0.531 Goal=   None    Shift=    0.000
 RMSDP=1.19D-04 MaxDP=2.53D-03 DE=-1.77D-04 OVMax= 2.78D-03

 Cycle   7  Pass 0  IDiag  1:
 RMSU=  2.75D-05    CP:  1.00D+00  1.28D+00  1.55D+00  1.39D+00  1.62D+00
                    CP:  1.27D+00
 E= -219.550435226873     Delta-E=       -0.000029584084 Rises=F Damp=F
 DIIS: error= 6.43D-05 at cycle   7 NSaved=   7.
 NSaved= 7 IEnMin= 7 EnMin= -219.550435226873     IErMin= 7 ErrMin= 6.43D-05
 ErrMax= 6.43D-05  0.00D+00 EMaxC= 1.00D-01 BMatC= 9.29D-07 BMatP= 1.43D-05
 IDIUse=1 WtCom= 1.00D+00 WtEn= 0.00D+00
 Coeff-Com:  0.378D-02-0.938D-02 0.188D-01 0.306D-01-0.158D+00-0.117D+00
 Coeff-Com:  0.123D+01
 Coeff:      0.378D-02-0.938D-02 0.188D-01 0.306D-01-0.158D+00-0.117D+00
 Coeff:      0.123D+01
 Gap=     0.531 Goal=   None    Shift=    0.000
 RMSDP=3.58D-05 MaxDP=7.22D-04 DE=-2.96D-05 OVMax= 7.98D-04

 Cycle   8  Pass 0  IDiag  1:
 RMSU=  7.51D-06    CP:  1.00D+00  1.28D+00  1.56D+00  1.41D+00  1.68D+00
                    CP:  1.45D+00  1.30D+00
 E= -219.550437276743     Delta-E=       -0.000002049870 Rises=F Damp=F
 DIIS: error= 1.40D-05 at cycle   8 NSaved=   8.
 NSaved= 8 IEnMin= 8 EnMin= -219.550437276743     IErMin= 8 ErrMin= 1.40D-05
 ErrMax= 1.40D-05  0.00D+00 EMaxC= 1.00D-01 BMatC= 3.01D-08 BMatP= 9.29D-07
 IDIUse=1 WtCom= 1.00D+00 WtEn= 0.00D+00
 Coeff-Com: -0.414D-03 0.721D-03 0.110D-02-0.221D-02 0.158D-01 0.753D-02
 Coeff-Com: -0.215D+00 0.119D+01
 Coeff:     -0.414D-03 0.721D-03 0.110D-02-0.221D-02 0.158D-01 0.753D-02
 Coeff:     -0.215D+00 0.119D+01
 Gap=     0.531 Goal=   None    Shift=    0.000
 RMSDP=3.71D-06 MaxDP=7.50D-05 DE=-2.05D-06 OVMax= 8.57D-05

 Initial convergence to 1.0D-05 achieved.  Increase integral accuracy.
 Cycle   9  Pass 1  IDiag  1:
 E= -219.550437336820     Delta-E=       -0.000000060077 Rises=F Damp=F
 DIIS: error= 8.03D-06 at cycle   1 NSaved=   1.
 NSaved= 1 IEnMin= 1 EnMin= -219.550437336820     IErMin= 1 ErrMin= 8.03D-06
 ErrMax= 8.03D-06  0.00D+00 EMaxC= 1.00D-01 BMatC= 4.97D-09 BMatP= 4.97D-09
 IDIUse=1 WtCom= 1.00D+00 WtEn= 0.00D+00
 Coeff-Com:  0.100D+01
 Coeff:      0.100D+01
 Gap=     0.531 Goal=   None    Shift=    0.000
 RMSDP=3.71D-06 MaxDP=7.50D-05 DE=-6.01D-08 OVMax= 2.83D-05

 Cycle  10  Pass 1  IDiag  1:
 RMSU=  8.62D-07    CP:  1.00D+00
 E= -219.550437343077     Delta-E=       -0.000000006258 Rises=F Damp=F
 DIIS: error= 2.70D-06 at cycle   2 NSaved=   2.
 NSaved= 2 IEnMin= 2 EnMin= -219.550437343077     IErMin= 2 ErrMin= 2.70D-06
 ErrMax= 2.70D-06  0.00D+00 EMaxC= 1.00D-01 BMatC= 1.55D-09 BMatP= 4.97D-09
 IDIUse=1 WtCom= 1.00D+00 WtEn= 0.00D+00
 Coeff-Com:  0.303D+00 0.697D+00
 Coeff:      0.303D+00 0.697D+00
 Gap=     0.531 Goal=   None    Shift=    0.000
 RMSDP=3.57D-07 MaxDP=8.29D-06 DE=-6.26D-09 OVMax= 1.13D-05

 Cycle  11  Pass 1  IDiag  1:
 RMSU=  3.48D-07    CP:  1.00D+00  1.09D+00
 E= -219.550437344904     Delta-E=       -0.000000001827 Rises=F Damp=F
 DIIS: error= 1.41D-06 at cycle   3 NSaved=   3.
 NSaved= 3 IEnMin= 3 EnMin= -219.550437344904     IErMin= 3 ErrMin= 1.41D-06
 ErrMax= 1.41D-06  0.00D+00 EMaxC= 1.00D-01 BMatC= 2.15D-10 BMatP= 1.55D-09
 IDIUse=1 WtCom= 1.00D+00 WtEn= 0.00D+00
 Coeff-Com: -0.360D+00-0.323D+00 0.168D+01
 Coeff:     -0.360D+00-0.323D+00 0.168D+01
 Gap=     0.531 Goal=   None    Shift=    0.000
 RMSDP=4.65D-07 MaxDP=9.22D-06 DE=-1.83D-09 OVMax= 1.68D-05

 Cycle  12  Pass 1  IDiag  1:
 RMSU=  1.03D-07    CP:  1.00D+00  1.52D+00  1.75D+00
 E= -219.550437345682     Delta-E=       -0.000000000778 Rises=F Damp=F
 DIIS: error= 1.99D-07 at cycle   4 NSaved=   4.
 NSaved= 4 IEnMin= 4 EnMin= -219.550437345682     IErMin= 4 ErrMin= 1.99D-07
 ErrMax= 1.99D-07  0.00D+00 EMaxC= 1.00D-01 BMatC= 5.93D-12 BMatP= 2.15D-10
 IDIUse=1 WtCom= 1.00D+00 WtEn= 0.00D+00
 Coeff-Com: -0.836D-01-0.840D-01 0.355D+00 0.812D+00
 Coeff:     -0.836D-01-0.840D-01 0.355D+00 0.812D+00
 Gap=     0.531 Goal=   None    Shift=    0.000
 RMSDP=4.49D-08 MaxDP=9.13D-07 DE=-7.78D-10 OVMax= 1.51D-06

 Cycle  13  Pass 1  IDiag  1:
 RMSU=  2.40D-08    CP:  1.00D+00  1.55D+00  1.82D+00  1.21D+00
 E= -219.550437345696     Delta-E=       -0.000000000014 Rises=F Damp=F
 DIIS: error= 1.07D-07 at cycle   5 NSaved=   5.
 NSaved= 5 IEnMin= 5 EnMin= -219.550437345696     IErMin= 5 ErrMin= 1.07D-07
 ErrMax= 1.07D-07  0.00D+00 EMaxC= 1.00D-01 BMatC= 1.22D-12 BMatP= 5.93D-12
 IDIUse=1 WtCom= 1.00D+00 WtEn= 0.00D+00
 Coeff-Com:  0.734D-01 0.654D-01-0.350D+00 0.546D-01 0.116D+01
 Coeff:      0.734D-01 0.654D-01-0.350D+00 0.546D-01 0.116D+01
 Gap=     0.531 Goal=   None    Shift=    0.000
 RMSDP=3.22D-08 MaxDP=6.83D-07 DE=-1.43D-11 OVMax= 1.09D-06

 Cycle  14  Pass 1  IDiag  1:
 RMSU=  1.02D-08    CP:  1.00D+00  1.56D+00  1.85D+00  1.46D+00  1.33D+00
 E= -219.550437345696     Delta-E=        0.000000000001 Rises=F Damp=F
 DIIS: error= 2.51D-08 at cycle   6 NSaved=   6.
 NSaved= 6 IEnMin= 5 EnMin= -219.550437345696     IErMin= 6 ErrMin= 2.51D-08
 ErrMax= 2.51D-08  0.00D+00 EMaxC= 1.00D-01 BMatC= 8.08D-14 BMatP= 1.22D-12
 IDIUse=1 WtCom= 1.00D+00 WtEn= 0.00D+00
 Coeff-Com:  0.126D-01 0.123D-01-0.554D-01-0.689D-01 0.103D+00 0.997D+00
 Coeff:      0.126D-01 0.123D-01-0.554D-01-0.689D-01 0.103D+00 0.997D+00
 Gap=     0.531 Goal=   None    Shift=    0.000
 RMSDP=7.73D-09 MaxDP=1.36D-07 DE= 8.53D-13 OVMax= 2.90D-07

 SCF Done:  E(RHF) =  -219.550437346     A.U. after   14 cycles
            NFock= 14  Conv=0.77D-08     -V/T= 3.0918
 KE= 1.049584775123D+02 PE=-8.713761871163D+02 EE= 3.437485294942D+02
 Leave Link  502 at Wed May 11 21:25:25 2022, MaxMem= 67108864000 cpu:              50.8 elap:               1.8
 (Enter /cm/shared/apps/gaussian/intel/EM64T/SSE4_2-enabled/binary//g16/l801.exe)
 Range of M.O.s used for correlation:     1    99
 NBasis=    99 NAE=    25 NBE=    25 NFC=     0 NFV=     0
 NROrb=     99 NOA=    25 NOB=    25 NVA=    74 NVB=    74

 **** Warning!!: The largest alpha MO coefficient is  0.28645487D+02

 Leave Link  801 at Wed May 11 21:25:25 2022, MaxMem= 67108864000 cpu:               0.5 elap:               0.0
 (Enter /cm/shared/apps/gaussian/intel/EM64T/SSE4_2-enabled/binary//g16/l906.exe)
 FulOut=F Deriv=T AODrv=T NAtomX=    13
   MMem=           0  MDisk=          25 MDiskD=          25
  W3Min=      245025 MinDsk=      763097 NBas6D=          99
 NBas2D=        5046    NTT=        4950    LW2=     3308096
    MDV= 67108721394 MDiskM=     9414523 NBas2p=        4950
 Disk-based method using ON**2 memory for 25 occupieds at a time.
 Permanent disk used for amplitudes=     4232800 words.
 Estimated scratch disk usage=    46975650 words.
 IMap=   1   2   3   4   5   6   7   8   9  10  11  12  13  14  15  16  17  18  19  20
 IMap=  21  22  23  24  25
 Actual    scratch disk usage=    43148450 words.
 JobTyp=1 Pass  1:  I=   1 to  25 NPSUse= 28 ParTrn=T ParDer=T DoDerP=T.
 (rs|ai) integrals will be sorted in core.
 Spin components of T(2) and E(2):
     alpha-alpha T2 =       0.2594206519D-01 E2=     -0.8389970513D-01
     alpha-beta  T2 =       0.1491939186D+00 E2=     -0.4863446093D+00
     beta-beta   T2 =       0.2594206519D-01 E2=     -0.8389970513D-01
 The integrals were generated   1 times.
 ANorm=    0.1095937064D+01
 E2 =    -0.6541440196D+00 EUMP2 =    -0.22020458136525D+03
 Leave Link  906 at Wed May 11 21:25:31 2022, MaxMem= 67108864000 cpu:             167.3 elap:               6.0
 (Enter /cm/shared/apps/gaussian/intel/EM64T/SSE4_2-enabled/binary//g16/l1101.exe)
 Using compressed Sx but separate Hx and Fx, NAtomX=    13.
 Will process     14 centers per pass.
   1 Symmetry operations used in ECPInt.
 ECPInt:  NShTT=    1275 NPrTT=    4064 LenC2=    1275 LenP2D=    3322.
 LDataN:  DoStor=T MaxTD1= 8 Len=  415
 Leave Link 1101 at Wed May 11 21:25:32 2022, MaxMem= 67108864000 cpu:              11.8 elap:               0.5
 (Enter /cm/shared/apps/gaussian/intel/EM64T/SSE4_2-enabled/binary//g16/l1102.exe)
 Leave Link 1102 at Wed May 11 21:25:32 2022, MaxMem= 67108864000 cpu:               1.0 elap:               0.1
 (Enter /cm/shared/apps/gaussian/intel/EM64T/SSE4_2-enabled/binary//g16/l1110.exe)
 Forming Gx(P) for the SCF density, NAtomX=    13.
 Integral derivatives from FoFJK, PRISM(SPDF).
 Do as many integral derivatives as possible in FoFJK.
 G2DrvN: MDV=   67108862954.
 G2DrvN: will do    14 centers at a time, making    1 passes.
 Calling FoFCou, ICntrl=  3107 FMM=F I1Cent=   0 AccDes= 0.00D+00.
 FoFJK:  IHMeth= 1 ICntrl=    3107 DoSepK=F KAlg= 0 I1Cent=           0 FoldK=F
 IRaf=         0 NMat=       1 IRICut=       1 DoRegI=T DoRafI=F ISym2E= 0 IDoP0=0 IntGTp=1.
 FoFCou: FMM=F IPFlag=           0 FMFlag=      100000 FMFlg1=           0
         NFxFlg=           0 DoJE=F BraDBF=F KetDBF=F FulRan=T
         wScrn=  0.000000 ICntrl=      3107 IOpCl=  0 I1Cent=           0 NGrid=           0
         NMat0=    1 NMatS0=      1 NMatT0=    0 NMatD0=    1 NMtDS0=    0 NMtDT0=    0
 Symmetry not used in FoFCou.
 End of G2Drv F.D. properties file   721 does not exist.
 End of G2Drv F.D. properties file   722 does not exist.
 End of G2Drv F.D. properties file   788 does not exist.
 Leave Link 1110 at Wed May 11 21:25:32 2022, MaxMem= 67108864000 cpu:               8.4 elap:               0.3
 (Enter /cm/shared/apps/gaussian/intel/EM64T/SSE4_2-enabled/binary//g16/l1002.exe)
 Minotr:  Closed shell wavefunction.
          IDoAtm=1111111111111
          Direct CPHF calculation.
          Differentiating once with respect to electric field.
                with respect to dipole field.
          Differentiating once with respect to nuclear coordinates.
          Requested convergence is 1.0D-08 RMS, and 1.0D-07 maximum.
          Secondary convergence is 1.0D-12 RMS, and 1.0D-12 maximum.
          NewPWx=T KeepS1=T KeepF1=T KeepIn=T MapXYZ=F SortEE=F KeepMc=T.
 Keep R1 ints in memory in canonical form, NReq=18152199.
 FoFCou: FMM=F IPFlag=           0 FMFlag=           0 FMFlg1=           0
         NFxFlg=           0 DoJE=F BraDBF=F KetDBF=F FulRan=T
         wScrn=  0.000000 ICntrl=       600 IOpCl=  0 I1Cent=           0 NGrid=           0
         NMat0=    1 NMatS0=   4950 NMatT0=    0 NMatD0=    1 NMtDS0=    0 NMtDT0=    0
 Symmetry not used in FoFCou.
 Two-electron integral symmetry not used.
          MDV=   67108864000 using IRadAn=       1.
          Solving linear equations simultaneously, MaxMat=       0.
          There are    42 degrees of freedom in the 1st order CPHF.  IDoFFX=6 NUNeed=    42.
     39 vectors produced by pass  0 Test12= 4.40D-15 2.38D-09 XBig12= 9.71D+00 1.28D+00.
 AX will form    39 AO Fock derivatives at one time.
     39 vectors produced by pass  1 Test12= 4.40D-15 2.38D-09 XBig12= 1.78D-01 8.70D-02.
     39 vectors produced by pass  2 Test12= 4.40D-15 2.38D-09 XBig12= 2.89D-03 1.41D-02.
     39 vectors produced by pass  3 Test12= 4.40D-15 2.38D-09 XBig12= 2.51D-05 9.72D-04.
     39 vectors produced by pass  4 Test12= 4.40D-15 2.38D-09 XBig12= 1.72D-07 8.47D-05.
     39 vectors produced by pass  5 Test12= 4.40D-15 2.38D-09 XBig12= 1.22D-09 6.02D-06.
     24 vectors produced by pass  6 Test12= 4.40D-15 2.38D-09 XBig12= 7.22D-12 4.40D-07.
      3 vectors produced by pass  7 Test12= 4.40D-15 2.38D-09 XBig12= 3.32D-14 2.65D-08.
 InvSVY:  IOpt=1 It=  1 EMax= 3.11D-15
 Solved reduced A of dimension   261 with    42 vectors.
 FullF1:  Do perturbations      1 to      42.
 Saving first derivative matrices.
 End of Minotr F.D. properties file   721 does not exist.
 End of Minotr F.D. properties file   722 does not exist.
 End of Minotr F.D. properties file   788 does not exist.
 Leave Link 1002 at Wed May 11 21:25:33 2022, MaxMem= 67108864000 cpu:              20.6 elap:               0.8
 (Enter /cm/shared/apps/gaussian/intel/EM64T/SSE4_2-enabled/binary//g16/l811.exe)
 MDV= 67108864000.
 Form MO integral derivatives with frozen-active canonical formalism.
 MOERI=1 MOERIx=1 NAtoms=    13 NAtomX=    13.
 Discarding MO integrals.
 MO basis two electron integral derivatives will not be stored on disk.
 IAlg= 3 DoFC=T DoPWx=T Debug=F.
 Reordered first order wavefunction length =      6845000
 In DefCFB: NBatch=  1 ICI= 25 ICA= 74 LFMax= 74
            Large arrays: LIAPS=    72527400 LIARS=    49999950 words.
 In StABat: MaxSiz= 39 MinSiz= 22 NAtomB=  3
 DoIAMN: NPSUse= 28.
 Leave Link  811 at Wed May 11 21:25:46 2022, MaxMem= 67108864000 cpu:             360.5 elap:              12.9
 (Enter /cm/shared/apps/gaussian/intel/EM64T/SSE4_2-enabled/binary//g16/l804.exe)
 Closed-shell transformation, MDV= 67108864000 ITran=4 ISComp=1.
 Semi-Direct transformation.
 ModeAB=           4 MOrb=            25 LenV=   67108486444
 LASXX=      9829800 LTotXX=     9829800 LenRXX=    19994800
 LTotAB=    10165000 MaxLAS=    12191850 LenRXY=           0
 NonZer=    29824600 LenScr=    45494272 LnRSAI=    12191850
 LnScr1=    19046400 LExtra=           0 Total=     96727322
 MaxDsk=          -1 SrtSym=           T ITran=            4
 DoSDTr:  NPSUse= 28
 JobTyp=0 Pass  1:  I=   1 to  25.
 (rs|ai) integrals will be sorted in core.
 Complete sort for first half transformation.
 First half transformation complete.
 Begin second half transformation for I=  10.
 Begin second half transformation for I=  20.
 Complete sort for second half transformation.
 Second half transformation complete.
 SymMOI:  orbitals are not symmetric.
 Spin components of T(2) and E(2):
     alpha-alpha T2 =       0.2594206519D-01 E2=     -0.8389970513D-01
     alpha-beta  T2 =       0.1491939186D+00 E2=     -0.4863446093D+00
     beta-beta   T2 =       0.2594206519D-01 E2=     -0.8389970513D-01
 ANorm=    0.1549889060D+01
 E2 =    -0.6541440196D+00 EUMP2 =    -0.22020458136525D+03
 Leave Link  804 at Wed May 11 21:25:48 2022, MaxMem= 67108864000 cpu:              50.3 elap:               1.8
 (Enter /cm/shared/apps/gaussian/intel/EM64T/SSE4_2-enabled/binary//g16/l1002.exe)
 Minotr:  Closed shell wavefunction.
          Computing MP2/KS-MP2 derivatives.
          Using Z-Vector for PSCF gradient.
          Skipping F1 and S1 gradient terms here.
          IDoAtm=1111111111111
          Using MO integrals in the linear equations.
          Forming densities via direct SCF.
          Differentiating once with respect to electric field.
                with respect to dipole field.
          Differentiating once with respect to nuclear coordinates.
          Requested convergence is 1.0D-10 RMS, and 1.0D-09 maximum.
          NewPWx=F KeepS1=T KeepF1=T KeepIn=T MapXYZ=F SortEE=F KeepMc=T.
          MDV=   67108864000 using IRadAn=       5.
          Solving linear equations separately, MaxMat=       0.
          There are     1 degrees of freedom in the 1st order CPHF.  IDoFFX=0 NUNeed=     1.
 FoFJK:  IHMeth= 1 ICntrl=       0 DoSepK=F KAlg= 0 I1Cent=           0 FoldK=F
 IRaf=         0 NMat=       1 IRICut=       1 DoRegI=T DoRafI=F ISym2E= 0 IDoP0=0 IntGTp=1.
 FoFCou: FMM=F IPFlag=           0 FMFlag=      100000 FMFlg1=           0
         NFxFlg=           0 DoJE=F BraDBF=F KetDBF=F FulRan=T
         wScrn=  0.000000 ICntrl=         0 IOpCl=  0 I1Cent=           0 NGrid=           0
         NMat0=    1 NMatS0=      1 NMatT0=    0 NMatD0=    1 NMtDS0=    0 NMtDT0=    0
 Symmetry not used in FoFCou.
 LinEq1:  Iter=  0 NonCon=     1 RMS=7.31D-03 Max=1.21D-01 NDo=     1
 LinEq1:  Iter=  1 NonCon=     1 RMS=1.64D-03 Max=1.47D-02 NDo=     1
 LinEq1:  Iter=  2 NonCon=     1 RMS=5.42D-04 Max=8.04D-03 NDo=     1
 LinEq1:  Iter=  3 NonCon=     1 RMS=1.98D-04 Max=3.02D-03 NDo=     1
 LinEq1:  Iter=  4 NonCon=     1 RMS=6.41D-05 Max=7.04D-04 NDo=     1
 LinEq1:  Iter=  5 NonCon=     1 RMS=1.89D-05 Max=2.13D-04 NDo=     1
 LinEq1:  Iter=  6 NonCon=     1 RMS=6.93D-06 Max=7.53D-05 NDo=     1
 LinEq1:  Iter=  7 NonCon=     1 RMS=1.24D-06 Max=1.80D-05 NDo=     1
 LinEq1:  Iter=  8 NonCon=     1 RMS=4.06D-07 Max=4.62D-06 NDo=     1
 LinEq1:  Iter=  9 NonCon=     1 RMS=1.62D-07 Max=2.76D-06 NDo=     1
 LinEq1:  Iter= 10 NonCon=     1 RMS=2.45D-08 Max=2.51D-07 NDo=     1
 LinEq1:  Iter= 11 NonCon=     1 RMS=3.60D-09 Max=4.76D-08 NDo=     1
 LinEq1:  Iter= 12 NonCon=     1 RMS=5.19D-10 Max=4.19D-09 NDo=     1
 LinEq1:  Iter= 13 NonCon=     0 RMS=9.52D-11 Max=6.27D-10 NDo=     1
 Linear equations converged to 1.000D-10 1.000D-09 after    13 iterations.
 End of Minotr F.D. properties file   721 does not exist.
 End of Minotr F.D. properties file   722 does not exist.
 End of Minotr F.D. properties file   788 does not exist.
 Leave Link 1002 at Wed May 11 21:25:49 2022, MaxMem= 67108864000 cpu:              27.9 elap:               1.0
 (Enter /cm/shared/apps/gaussian/intel/EM64T/SSE4_2-enabled/binary//g16/l1102.exe)
 Use density number 2.
 Symmetrizing basis deriv contribution to polar:
 IMax=3 JMax=2 DiffMx= 0.00D+00
 Leave Link 1102 at Wed May 11 21:25:49 2022, MaxMem= 67108864000 cpu:               0.6 elap:               0.0
 (Enter /cm/shared/apps/gaussian/intel/EM64T/SSE4_2-enabled/binary//g16/l1110.exe)
 Forming Gx(P) for generalized density number  2 NAtomX=    13.
 Integral derivatives from FoFJK, PRISM(SPDF).
 Do as many integral derivatives as possible in FoFJK.
 G2DrvN: MDV=   67108862954.
 G2DrvN: will do    14 centers at a time, making    1 passes.
 Calling FoFCou, ICntrl=  3107 FMM=F I1Cent=   0 AccDes= 0.00D+00.
 FoFJK:  IHMeth= 1 ICntrl=    3107 DoSepK=F KAlg= 0 I1Cent=           0 FoldK=F
 IRaf=         0 NMat=       1 IRICut=       1 DoRegI=T DoRafI=F ISym2E= 0 IDoP0=0 IntGTp=1.
 FoFCou: FMM=F IPFlag=           0 FMFlag=      100000 FMFlg1=           0
         NFxFlg=           0 DoJE=F BraDBF=F KetDBF=F FulRan=T
         wScrn=  0.000000 ICntrl=      3107 IOpCl=  0 I1Cent=           0 NGrid=           0
         NMat0=    1 NMatS0=      1 NMatT0=    0 NMatD0=    1 NMtDS0=    0 NMtDT0=    0
 Symmetry not used in FoFCou.
 End of G2Drv F.D. properties file   721 does not exist.
 End of G2Drv F.D. properties file   722 does not exist.
 End of G2Drv F.D. properties file   788 does not exist.
 Leave Link 1110 at Wed May 11 21:25:49 2022, MaxMem= 67108864000 cpu:               8.7 elap:               0.3
 (Enter /cm/shared/apps/gaussian/intel/EM64T/SSE4_2-enabled/binary//g16/l1112.exe)
 MP22nd: MDV=   67108864000
 This link is doing NAtomX=    13 total of    42 degrees of freedom.
 Using ON3 I/O method in MakUI.
 Using Ix for Sx.
 Using OV2 memory method for fx*t*t/D, MaxI=    25 DoOO2=F NP=  28.
 R2 and R3 integrals will be kept in memory, NReq=    25327450.
 FoFCou: FMM=F IPFlag=           0 FMFlag=           0 FMFlg1=           0
         NFxFlg=           0 DoJE=F BraDBF=F KetDBF=F FulRan=T
         wScrn=  0.000000 ICntrl=       600 IOpCl=  0 I1Cent=           0 NGrid=           0
         NMat0=    1 NMatS0=      1 NMatT0=    0 NMatD0=    1 NMtDS0=    0 NMtDT0=    0
 Symmetry not used in FoFCou.
 DD1Dir will call FoFMem   1 times, MxPair=       650
 NAB=   325 NAA=     0 NBB=     0.
 Symmetry is being used.
 FoFJK:  IHMeth= 1 ICntrl=       0 DoSepK=F KAlg= 0 I1Cent=           0 FoldK=F
 IRaf=         0 NMat=      42 IRICut=     105 DoRegI=T DoRafI=T ISym2E= 2 IDoP0=0 IntGTp=1.
 Discarding MO integrals.
 Leave Link 1112 at Wed May 11 21:25:58 2022, MaxMem= 67108864000 cpu:             260.3 elap:               9.4
 (Enter /cm/shared/apps/gaussian/intel/EM64T/SSE4_2-enabled/binary//g16/l601.exe)
 Copying SCF densities to generalized density rwf, IOpCl= 0 IROHF=0.

 **********************************************************************

            Population analysis using the SCF density.

 **********************************************************************

 Orbital symmetries:
       Occupied  (A) (A) (A) (A) (A) (A) (A) (A) (A) (A) (A) (A)
                 (A) (A) (A) (A) (A) (A) (A) (A) (A) (A) (A) (A)
                 (A)
       Virtual   (A) (A) (A) (A) (A) (A) (A) (A) (A) (A) (A) (A)
                 (A) (A) (A) (A) (A) (A) (A) (A) (A) (A) (A) (A)
                 (A) (A) (A) (A) (A) (A) (A) (A) (A) (A) (A) (A)
                 (A) (A) (A) (A) (A) (A) (A) (A) (A) (A) (A) (A)
                 (A) (A) (A) (A) (A) (A) (A) (A) (A) (A) (A) (A)
                 (A) (A) (A) (A) (A) (A) (A) (A) (A) (A) (A) (A)
                 (A) (A)
 The electronic state is 1-A.
 Alpha  occ. eigenvalues --   -5.48026  -3.47640  -3.47060  -3.47044  -1.78352
 Alpha  occ. eigenvalues --   -1.70826  -1.69936  -1.64285  -1.14178  -1.12415
 Alpha  occ. eigenvalues --   -1.10279  -1.04655  -1.04492  -1.04298  -1.04220
 Alpha  occ. eigenvalues --   -1.03716  -1.03703  -1.00087  -0.95338  -0.92284
 Alpha  occ. eigenvalues --   -0.87456  -0.86926  -0.83146  -0.83098  -0.82573
 Alpha virt. eigenvalues --   -0.29487  -0.22715  -0.22171  -0.18414  -0.16936
 Alpha virt. eigenvalues --   -0.12028  -0.11278  -0.09958  -0.08762  -0.08211
 Alpha virt. eigenvalues --   -0.07820  -0.06561  -0.06406  -0.04314  -0.03577
 Alpha virt. eigenvalues --   -0.03034  -0.02188  -0.02009   0.00996   0.01915
 Alpha virt. eigenvalues --    0.02248   0.03314   0.04646   0.07385   0.08007
 Alpha virt. eigenvalues --    0.09039   0.09787   0.11723   0.12880   0.14645
 Alpha virt. eigenvalues --    0.15796   0.20111   0.24031   0.26186   0.31991
 Alpha virt. eigenvalues --    0.57827   0.57928   0.61385   0.63874   0.88568
 Alpha virt. eigenvalues --    0.97819   1.04303   1.04819   1.04987   1.06191
 Alpha virt. eigenvalues --    1.06947   1.09124   1.09743   1.11398   1.11802
 Alpha virt. eigenvalues --    1.11904   1.12450   1.13849   1.13950   1.17710
 Alpha virt. eigenvalues --    1.18444   1.23211   1.24300   1.25356   1.30377
 Alpha virt. eigenvalues --    1.36598   1.38342   1.47716   1.49183   2.15166
 Alpha virt. eigenvalues --    2.48794   2.53257   3.03798   4.18961  15.43030
 Alpha virt. eigenvalues --   41.53215  41.54338  41.67390  81.41225
          Condensed to atoms (all electrons):
               1          2          3          4          5          6
     1  Hg  18.377552  -0.002255   0.106043  -0.002605  -0.004792   0.142651
     2  H   -0.002255   0.196970   0.243001  -0.010007   0.000000  -0.000022
     3  O    0.106043   0.243001   6.329644   0.243230  -0.000048  -0.000499
     4  H   -0.002605  -0.010007   0.243230   0.197678   0.000000  -0.000080
     5  H   -0.004792   0.000000  -0.000048   0.000000   0.134541   0.159087
     6  O    0.142651  -0.000022  -0.000499  -0.000080   0.159087   6.795472
     7  H   -0.004237   0.000000   0.000065   0.000000  -0.000591   0.156617
     8  H    0.000554  -0.000000  -0.000000   0.000000  -0.001661   0.001088
     9  O   -0.000868   0.000001  -0.000023   0.000002   0.072338  -0.049292
    10  H    0.000674   0.000000  -0.000000  -0.000000  -0.001743   0.001397
    11  H    0.000561  -0.000000   0.000001   0.000000   0.000001   0.001128
    12  O   -0.000648   0.000001  -0.000016   0.000002  -0.000416  -0.049710
    13  H    0.000672  -0.000000   0.000001  -0.000000  -0.000003   0.001458
               7          8          9         10         11         12
     1  Hg  -0.004237   0.000554  -0.000868   0.000674   0.000561  -0.000648
     2  H    0.000000  -0.000000   0.000001   0.000000  -0.000000   0.000001
     3  O    0.000065  -0.000000  -0.000023  -0.000000   0.000001  -0.000016
     4  H    0.000000   0.000000   0.000002  -0.000000   0.000000   0.000002
     5  H   -0.000591  -0.001661   0.072338  -0.001743   0.000001  -0.000416
     6  O    0.156617   0.001088  -0.049292   0.001397   0.001128  -0.049710
     7  H    0.133751  -0.000000  -0.000395  -0.000004  -0.001686   0.074362
     8  H   -0.000000   0.231380   0.256852  -0.012898  -0.000000   0.000035
     9  O   -0.000395   0.256852   6.385869   0.257834   0.000038  -0.001169
    10  H   -0.000004  -0.012898   0.257834   0.228771  -0.000000   0.000016
    11  H   -0.001686  -0.000000   0.000038  -0.000000   0.230475   0.256397
    12  O    0.074362   0.000035  -0.001169   0.000016   0.256397   6.383457
    13  H   -0.001775  -0.000000   0.000017  -0.000000  -0.012754   0.257366
              13
     1  Hg   0.000672
     2  H   -0.000000
     3  O    0.000001
     4  H   -0.000000
     5  H   -0.000003
     6  O    0.001458
     7  H   -0.001775
     8  H   -0.000000
     9  O    0.000017
    10  H   -0.000000
    11  H   -0.012754
    12  O    0.257366
    13  H    0.227853
 Mulliken charges:
               1
     1  Hg   1.386699
     2  H    0.572309
     3  O   -0.921398
     4  H    0.571779
     5  H    0.643288
     6  O   -1.159296
     7  H    0.643891
     8  H    0.524650
     9  O   -0.921203
    10  H    0.525954
    11  H    0.525840
    12  O   -0.919677
    13  H    0.527166
 Sum of Mulliken charges =   2.00000
 Mulliken charges with hydrogens summed into heavy atoms:
               1
     1  Hg   1.386699
     3  O    0.222690
     6  O    0.127883
     9  O    0.129400
    12  O    0.133328
         Mulliken charges condensed to fragments:
      1      1.386699
      2      0.613301
 APT charges:
               1
     1  Hg   1.348578
     2  H    0.430396
     3  O   -0.680550
     4  H    0.430350
     5  H    0.844972
     6  O   -1.184196
     7  H    0.857467
     8  H    0.397255
     9  O   -0.821522
    10  H    0.401542
    11  H    0.399158
    12  O   -0.826965
    13  H    0.403516
 Sum of APT charges =   2.00000
 APT charges with hydrogens summed into heavy atoms:
               1
     1  Hg   1.348578
     3  O    0.180195
     6  O    0.518243
     9  O   -0.022725
    12  O   -0.024291
         APT charges condensed to fragments:
      1      1.348578
      2      0.651422
 Electronic spatial extent (au):  <R**2>=           1051.5177
 Charge=              2.0000 electrons
 Dipole moment (field-independent basis, Debye):
    X=              3.6243    Y=             -1.3296    Z=              0.7198  Tot=              3.9270
 Quadrupole moment (field-independent basis, Debye-Ang):
   XX=             30.5290   YY=            -21.8766   ZZ=            -35.1545
   XY=              5.0135   XZ=              1.2002   YZ=             -0.2707
 Traceless Quadrupole moment (field-independent basis, Debye-Ang):
   XX=             39.3630   YY=            -13.0426   ZZ=            -26.3205
   XY=              5.0135   XZ=              1.2002   YZ=             -0.2707
 Octapole moment (field-independent basis, Debye-Ang**2):
  XXX=             34.4648  YYY=              0.9458  ZZZ=              1.6521  XYY=             70.8508
  XXY=            -15.0364  XXZ=              6.2469  XZZ=            -10.3609  YZZ=             -0.9937
  YYZ=             -1.7675  XYZ=              0.8885
 Hexadecapole moment (field-independent basis, Debye-Ang**3):
 XXXX=            -97.0433 YYYY=           -270.3994 ZZZZ=            -34.6657 XXXY=             43.2155
 XXXZ=             14.8474 YYYX=              8.3181 YYYZ=             -0.1531 ZZZX=              2.7394
 ZZZY=             -0.3778 XXYY=             89.1198 XXZZ=            -75.5901 YYZZ=            -38.2276
 XXYZ=             -2.2664 YYXZ=             -0.9085 ZZXY=              3.4028
 N-N= 2.031187427641D+02 E-N=-8.713761890483D+02  KE= 1.049584775123D+02
  Exact polarizability:  56.619   0.594  39.483  -0.423  -0.086  34.089
 Approx polarizability:  30.805   0.451  25.493   0.034  -0.100  26.088
 No NMR shielding tensors so no spin-rotation constants.
 Leave Link  601 at Wed May 11 21:25:59 2022, MaxMem= 67108864000 cpu:               3.2 elap:               0.1
 (Enter /cm/shared/apps/gaussian/intel/EM64T/SSE4_2-enabled/binary//g16/l701.exe)
 ... and contract with generalized density number  2.
 Compute integral second derivatives.
   1 Symmetry operations used in ECPInt.
 ECPInt:  NShTT=    1275 NPrTT=    4064 LenC2=    1275 LenP2D=    3322.
 LDataN:  DoStor=T MaxTD1= 9 Len=  602
 Leave Link  701 at Wed May 11 21:26:00 2022, MaxMem= 67108864000 cpu:              32.8 elap:               1.2
 (Enter /cm/shared/apps/gaussian/intel/EM64T/SSE4_2-enabled/binary//g16/l702.exe)
 L702 exits ... SP integral derivatives will be done elsewhere.
 Leave Link  702 at Wed May 11 21:26:00 2022, MaxMem= 67108864000 cpu:               1.0 elap:               0.1
 (Enter /cm/shared/apps/gaussian/intel/EM64T/SSE4_2-enabled/binary//g16/l703.exe)
 Integral derivatives from FoFJK, PRISM(SPDF).
 Compute integral second derivatives, UseDBF=F ICtDFT=           0.
 Calling FoFJK, ICntrl=  10100127 FMM=F ISym2X=0 I1Cent= 0 IOpClX= 0 NMat=1 NMatS=1 NMatT=0.
 FoFJK:  IHMeth= 1 ICntrl=10100127 DoSepK=F KAlg= 0 I1Cent=           0 FoldK=F
 IRaf=         0 NMat=       1 IRICut=       1 DoRegI=T DoRafI=F ISym2E= 0 IDoP0=0 IntGTp=1.
 FoFCou: FMM=F IPFlag=           0 FMFlag=      100000 FMFlg1=         800
         NFxFlg=           0 DoJE=F BraDBF=F KetDBF=F FulRan=T
         wScrn=  0.000000 ICntrl=  10100127 IOpCl=  0 I1Cent=           0 NGrid=           0
         NMat0=    1 NMatS0=      1 NMatT0=    0 NMatD0=    1 NMtDS0=    0 NMtDT0=    0
 Symmetry not used in FoFCou.
 Leave Link  703 at Wed May 11 21:26:00 2022, MaxMem= 67108864000 cpu:              12.8 elap:               0.5
 (Enter /cm/shared/apps/gaussian/intel/EM64T/SSE4_2-enabled/binary//g16/l716.exe)
 Dipole        = 1.57545088D+00-4.78977566D-01 2.58370520D-01
 Polarizability= 5.66190759D+01 5.93819783D-01 3.94829343D+01
                -4.22644816D-01-8.59092966D-02 3.40892401D+01
 Full mass-weighted force constant matrix:
 Low frequencies --- -293.4122 -291.4283 -273.0862  -68.1332  -56.3085  -45.6302
 Low frequencies ---  -41.7849   -0.0002   -0.0001
 ******    4 imaginary frequencies (negative Signs) ****** 
 Diagonal vibrational polarizability:
      156.1811521     274.8329567     867.6974556
 Harmonic frequencies (cm**-1), IR intensities (KM/Mole), Raman scattering
 activities (A**4/AMU), depolarization ratios for plane and unpolarized
 incident light, reduced masses (AMU), force constants (mDyne/A),
 and normal coordinates:
                      1                      2                      3
                      A                      A                      A
 Frequencies --   -291.5807              -290.4397              -271.1871
 Red. masses --      1.0106                 1.0516                 1.0246
 Frc consts  --      0.0506                 0.0523                 0.0444
 IR Inten    --      7.0519                50.0063                55.4940
  Atom  AN      X      Y      Z        X      Y      Z        X      Y      Z
     1  80     0.00   0.00  -0.00    -0.00   0.00   0.00    -0.00  -0.00  -0.00
     2   1    -0.01   0.15  -0.04    -0.01   0.09  -0.02    -0.06   0.66  -0.16
     3   8     0.00  -0.00   0.01     0.00  -0.00   0.01     0.00  -0.00   0.03
     4   1     0.01  -0.15  -0.05     0.01  -0.09  -0.02     0.04  -0.64  -0.21
     5   1     0.00  -0.01  -0.05    -0.00   0.00   0.06     0.00  -0.00   0.01
     6   8    -0.00   0.00  -0.00     0.00  -0.00   0.03    -0.00  -0.00  -0.00
     7   1    -0.00  -0.00   0.03    -0.00  -0.00   0.06     0.00   0.00  -0.02
     8   1     0.40   0.35  -0.16    -0.30  -0.30   0.09    -0.06  -0.03   0.04
     9   8     0.00   0.00   0.01     0.00  -0.00  -0.03    -0.00   0.00   0.02
    10   1    -0.40  -0.36  -0.08     0.31   0.31   0.03     0.06   0.03   0.04
    11   1    -0.31   0.25   0.13    -0.39   0.36   0.12     0.13  -0.10  -0.07
    12   8    -0.00  -0.00  -0.00    -0.00   0.00  -0.03     0.00   0.00  -0.01
    13   1     0.31  -0.26   0.07     0.40  -0.37   0.04    -0.13   0.10  -0.04
                      4                      5                      6
                      A                      A                      A
 Frequencies --    -47.7752                18.8652                60.7656
 Red. masses --      3.4407                 4.9302                 5.2445
 Frc consts  --      0.0046                 0.0010                 0.0114
 IR Inten    --     67.0743                 0.6430                 5.7060
  Atom  AN      X      Y      Z        X      Y      Z        X      Y      Z
     1  80     0.00   0.00  -0.04    -0.00  -0.01  -0.00    -0.05  -0.00   0.00
     2   1    -0.14  -0.01   0.38    -0.03   0.40   0.01    -0.04  -0.01  -0.02
     3   8     0.02  -0.01   0.28     0.01   0.32   0.00    -0.05  -0.00  -0.01
     4   1     0.18  -0.01   0.37    -0.04   0.40   0.01    -0.06  -0.00  -0.02
     5   1    -0.01   0.01  -0.11     0.08  -0.21   0.00     0.02   0.03  -0.01
     6   8    -0.01   0.00  -0.17     0.00  -0.19  -0.01    -0.05   0.00  -0.00
     7   1    -0.01  -0.00  -0.11    -0.08  -0.22  -0.01     0.03  -0.03  -0.01
     8   1    -0.20   0.13   0.29     0.26   0.06  -0.00     0.31   0.28   0.01
     9   8    -0.01   0.02   0.13     0.25  -0.00  -0.01     0.29   0.19   0.00
    10   1     0.18  -0.08   0.29     0.29   0.06  -0.01     0.35   0.25   0.01
    11   1    -0.18  -0.13   0.27    -0.27   0.04   0.02     0.32  -0.28   0.01
    12   8    -0.01  -0.02   0.13    -0.24  -0.01   0.02     0.30  -0.19   0.00
    13   1     0.17   0.08   0.28    -0.27   0.05   0.03     0.36  -0.25   0.01
                      7                      8                      9
                      A                      A                      A
 Frequencies --    116.8872               121.4003               323.0310
 Red. masses --      6.0324                 3.8462                 5.4916
 Frc consts  --      0.0486                 0.0334                 0.3376
 IR Inten    --     26.6062                14.0993                38.9982
  Atom  AN      X      Y      Z        X      Y      Z        X      Y      Z
     1  80     0.00  -0.08   0.00    -0.01  -0.00  -0.04     0.04   0.00  -0.00
     2   1    -0.03   0.44  -0.02    -0.16   0.01   0.31     0.06  -0.00   0.00
     3   8     0.01   0.33  -0.01     0.01   0.02   0.20     0.06  -0.00   0.00
     4   1    -0.07   0.44  -0.01     0.17   0.03   0.29     0.07  -0.01   0.00
     5   1    -0.02   0.32  -0.04     0.01   0.01   0.29    -0.10  -0.06   0.12
     6   8    -0.00   0.25  -0.02     0.02   0.01   0.35    -0.11  -0.01   0.04
     7   1     0.01   0.32  -0.00     0.01   0.02   0.28    -0.10   0.05   0.11
     8   1    -0.17   0.10   0.00     0.25  -0.15  -0.19    -0.11   0.21  -0.08
     9   8    -0.14   0.14  -0.00     0.02  -0.02  -0.00    -0.18   0.32  -0.00
    10   1    -0.16   0.09   0.01    -0.22   0.10  -0.20    -0.29   0.42  -0.11
    11   1     0.13   0.08   0.03     0.26   0.16  -0.19    -0.11  -0.21  -0.08
    12   8     0.14   0.14   0.01     0.03   0.03  -0.01    -0.17  -0.32  -0.00
    13   1     0.18   0.10   0.02    -0.20  -0.09  -0.20    -0.27  -0.41  -0.10
                     10                     11                     12
                      A                      A                      A
 Frequencies --    364.5294               396.8920               411.9104
 Red. masses --      1.0755                 3.1520                 1.3934
 Frc consts  --      0.0842                 0.2925                 0.1393
 IR Inten    --      6.8634               566.9919                16.4261
  Atom  AN      X      Y      Z        X      Y      Z        X      Y      Z
     1  80     0.00   0.00  -0.00     0.00   0.00   0.00     0.00   0.00  -0.00
     2   1     0.00  -0.01   0.00     0.00  -0.01  -0.00     0.01   0.00   0.00
     3   8     0.00   0.00  -0.00    -0.01   0.01   0.00     0.02  -0.00  -0.00
     4   1     0.00   0.01   0.00     0.00  -0.02  -0.00     0.02   0.01   0.00
     5   1    -0.02   0.01  -0.26    -0.16   0.50   0.03    -0.01  -0.01  -0.21
     6   8    -0.00   0.03   0.00    -0.00   0.26  -0.01    -0.02   0.01   0.12
     7   1     0.02   0.01   0.26     0.16   0.53   0.01     0.00   0.04  -0.23
     8   1    -0.22   0.34   0.21     0.21  -0.30  -0.08    -0.23   0.34   0.18
     9   8     0.01  -0.02  -0.04     0.11  -0.16   0.03    -0.01   0.01  -0.06
    10   1     0.26  -0.34   0.25     0.05  -0.07  -0.04     0.22  -0.32   0.21
    11   1     0.20   0.33  -0.20    -0.17  -0.26   0.05    -0.25  -0.39   0.20
    12   8    -0.01  -0.02   0.04    -0.11  -0.16  -0.02    -0.01  -0.02  -0.07
    13   1    -0.24  -0.33  -0.24    -0.09  -0.13   0.01     0.22   0.35   0.23
                     13                     14                     15
                      A                      A                      A
 Frequencies --    487.2382               646.0450               673.8358
 Red. masses --      7.3092                 1.1628                 1.4675
 Frc consts  --      1.0224                 0.2859                 0.3926
 IR Inten    --     45.1352               661.3736               228.0961
  Atom  AN      X      Y      Z        X      Y      Z        X      Y      Z
     1  80    -0.05   0.00   0.00    -0.00  -0.00  -0.00    -0.01   0.00   0.00
     2   1     0.45   0.27  -0.03     0.03  -0.05  -0.00    -0.06   0.14   0.00
     3   8     0.61  -0.06  -0.03     0.00   0.01   0.00     0.02  -0.02  -0.00
     4   1     0.44   0.27  -0.00     0.03  -0.05  -0.01    -0.05   0.14   0.02
     5   1    -0.10   0.09   0.01    -0.10  -0.03   0.01     0.15   0.03  -0.00
     6   8    -0.11   0.01  -0.02    -0.00   0.01  -0.00     0.12   0.00  -0.00
     7   1    -0.09  -0.06   0.02     0.10  -0.03  -0.01     0.16  -0.03  -0.01
     8   1     0.08  -0.06  -0.03     0.26   0.42  -0.05    -0.25  -0.37   0.05
     9   8     0.02  -0.04   0.01    -0.05  -0.06   0.01     0.03   0.07  -0.01
    10   1     0.02   0.04  -0.02     0.26   0.43  -0.02    -0.26  -0.37   0.02
    11   1     0.08   0.04  -0.03    -0.25   0.40   0.05    -0.28   0.39   0.05
    12   8     0.01   0.03   0.01     0.05  -0.05  -0.01     0.03  -0.08  -0.01
    13   1     0.02  -0.06  -0.02    -0.26   0.41   0.02    -0.29   0.40   0.02
                     16                     17                     18
                      A                      A                      A
 Frequencies --    690.7820               731.4820               782.1636
 Red. masses --      1.1658                 3.3912                 1.1314
 Frc consts  --      0.3278                 1.0691                 0.4078
 IR Inten    --    386.1951                90.2411                43.2146
  Atom  AN      X      Y      Z        X      Y      Z        X      Y      Z
     1  80     0.00   0.00  -0.00    -0.03  -0.00   0.00     0.00  -0.00   0.01
     2   1    -0.34   0.59   0.00     0.09  -0.09   0.00    -0.63   0.05   0.31
     3   8    -0.01  -0.10  -0.00     0.05   0.01  -0.00    -0.00   0.00  -0.09
     4   1    -0.34   0.59   0.07     0.11  -0.09  -0.01     0.66  -0.07   0.25
     5   1    -0.02  -0.01   0.00     0.21  -0.12   0.02    -0.00   0.00  -0.01
     6   8     0.01   0.01   0.00     0.37   0.00  -0.00    -0.00   0.00  -0.01
     7   1    -0.00   0.00   0.00     0.21   0.13   0.02    -0.00  -0.00  -0.00
     8   1     0.07   0.13  -0.01     0.13   0.42  -0.02    -0.00   0.00  -0.00
     9   8    -0.01  -0.02   0.00    -0.07   0.01  -0.01     0.00  -0.00  -0.00
    10   1     0.08   0.12  -0.00     0.18   0.34  -0.00     0.00   0.00  -0.00
    11   1     0.03  -0.06  -0.01     0.15  -0.43  -0.02    -0.00  -0.00   0.00
    12   8    -0.01   0.00  -0.00    -0.07  -0.01  -0.01     0.00   0.00  -0.00
    13   1     0.04  -0.06  -0.00     0.19  -0.34  -0.00     0.00   0.00   0.00
                     19                     20                     21
                      A                      A                      A
 Frequencies --   1279.6674              1397.2919              1419.9955
 Red. masses --      1.0448                 1.0638                 1.0499
 Frc consts  --      1.0081                 1.2237                 1.2473
 IR Inten    --    624.9937              1152.0617               361.1309
  Atom  AN      X      Y      Z        X      Y      Z        X      Y      Z
     1  80    -0.00  -0.00   0.00    -0.00   0.00   0.00    -0.00  -0.00   0.00
     2   1    -0.00   0.00   0.00     0.00   0.01   0.00     0.00  -0.00   0.00
     3   8     0.00  -0.00  -0.00     0.00  -0.00   0.00     0.00  -0.00  -0.00
     4   1    -0.00   0.00  -0.00     0.00   0.01  -0.00     0.00   0.00  -0.00
     5   1    -0.69  -0.09  -0.03    -0.04  -0.30   0.50     0.01  -0.41  -0.45
     6   8    -0.00  -0.03  -0.00    -0.01  -0.04  -0.02    -0.00   0.02  -0.01
     7   1     0.70   0.07   0.05    -0.17   0.73   0.07    -0.12   0.08   0.71
     8   1    -0.03  -0.04  -0.00    -0.10   0.13   0.08    -0.01  -0.09   0.01
     9   8     0.01   0.02  -0.00     0.01  -0.01  -0.02     0.01  -0.01   0.02
    10   1    -0.04  -0.02   0.00    -0.01  -0.09   0.01    -0.10   0.11  -0.09
    11   1     0.01  -0.04   0.02    -0.11  -0.03   0.09    -0.10  -0.16   0.08
    12   8    -0.01   0.03  -0.00     0.03   0.01   0.00     0.01   0.00  -0.04
    13   1     0.02  -0.02  -0.02    -0.12  -0.01  -0.09     0.03   0.15   0.05
                     22                     23                     24
                      A                      A                      A
 Frequencies --   1476.0481              1500.2381              1748.4448
 Red. masses --      1.1491                 1.1437                 1.0855
 Frc consts  --      1.4751                 1.5166                 1.9551
 IR Inten    --   1433.0757              1575.1050               187.5106
  Atom  AN      X      Y      Z        X      Y      Z        X      Y      Z
     1  80     0.00  -0.00   0.00     0.00   0.00   0.00    -0.00  -0.00  -0.00
     2   1     0.00  -0.01   0.00    -0.00   0.00  -0.00     0.51   0.25  -0.41
     3   8    -0.00   0.00   0.00    -0.00  -0.00   0.00    -0.07  -0.03   0.00
     4   1    -0.00  -0.01  -0.00    -0.01   0.00   0.00     0.54   0.23   0.38
     5   1    -0.13  -0.23   0.66     0.00   0.73   0.18     0.05   0.00   0.01
     6   8     0.01   0.08  -0.03     0.01  -0.08  -0.02    -0.00   0.00  -0.00
     7   1    -0.03  -0.54   0.29    -0.01   0.04   0.56     0.05  -0.00   0.01
     8   1    -0.11   0.14   0.09     0.11  -0.00  -0.10    -0.02   0.02   0.01
     9   8     0.02  -0.01  -0.03    -0.03   0.02  -0.01     0.00  -0.00  -0.00
    10   1    -0.00  -0.12   0.02     0.17  -0.10   0.14    -0.02   0.01  -0.01
    11   1     0.06  -0.04  -0.05    -0.06  -0.11   0.06    -0.00  -0.01   0.00
    12   8    -0.02  -0.01  -0.02     0.01   0.01  -0.02    -0.00   0.00  -0.00
    13   1     0.13   0.11   0.12     0.03   0.11   0.03    -0.00  -0.00  -0.00
                     25                     26                     27
                      A                      A                      A
 Frequencies --   1764.2887              1778.7147              1808.4197
 Red. masses --      1.0701                 1.0865                 1.0852
 Frc consts  --      1.9626                 2.0254                 2.0911
 IR Inten    --     66.5509               839.1980              2612.8372
  Atom  AN      X      Y      Z        X      Y      Z        X      Y      Z
     1  80    -0.00   0.00  -0.00    -0.00   0.00   0.00    -0.00  -0.00  -0.00
     2   1    -0.03  -0.02   0.03    -0.01  -0.00   0.01    -0.01  -0.00   0.01
     3   8     0.00   0.00  -0.00     0.00  -0.00  -0.00     0.00   0.00  -0.00
     4   1    -0.04  -0.01  -0.03    -0.01  -0.00  -0.01    -0.01  -0.00  -0.01
     5   1     0.49   0.14   0.07    -0.00   0.17  -0.04     0.51  -0.27   0.09
     6   8    -0.04  -0.00  -0.01    -0.00  -0.03  -0.00    -0.05   0.01  -0.01
     7   1     0.48  -0.09   0.08     0.01   0.24   0.05     0.47   0.16   0.07
     8   1    -0.26   0.24   0.23    -0.24   0.18   0.20     0.26  -0.17  -0.20
     9   8     0.03  -0.03  -0.00     0.03  -0.02   0.00    -0.04   0.02  -0.00
    10   1    -0.27   0.18  -0.23    -0.26   0.16  -0.21     0.28  -0.15   0.22
    11   1    -0.17  -0.17   0.16     0.37   0.29  -0.31     0.17   0.10  -0.13
    12   8     0.01   0.02  -0.00    -0.04  -0.03  -0.00    -0.03  -0.01  -0.00
    13   1    -0.16  -0.12  -0.15     0.39   0.25   0.33     0.19   0.10   0.14
                     28                     29                     30
                      A                      A                      A
 Frequencies --   3602.1206              3689.1809              3691.0437
 Red. masses --      1.0406                 1.0404                 1.0405
 Frc consts  --      7.9549                 8.3425                 8.3517
 IR Inten    --    257.3201                66.3344               110.7889
  Atom  AN      X      Y      Z        X      Y      Z        X      Y      Z
     1  80    -0.00   0.00   0.00     0.00  -0.00  -0.00     0.00   0.00  -0.00
     2   1    -0.35  -0.17  -0.60     0.00   0.00   0.00     0.00   0.00   0.01
     3   8     0.04   0.02  -0.00    -0.00  -0.00  -0.00    -0.00  -0.00   0.00
     4   1    -0.29  -0.20   0.60     0.00   0.00  -0.00     0.00   0.00  -0.01
     5   1     0.00  -0.01   0.00    -0.01   0.01  -0.00     0.02  -0.01   0.00
     6   8    -0.00  -0.00  -0.00    -0.00  -0.00  -0.00    -0.00   0.00  -0.00
     7   1     0.00   0.01   0.00     0.02   0.01   0.00     0.01   0.00   0.00
     8   1    -0.00   0.00  -0.01     0.13  -0.05   0.23    -0.31   0.13  -0.55
     9   8     0.00  -0.00  -0.00    -0.02   0.01   0.00     0.04  -0.02  -0.00
    10   1    -0.00   0.00   0.01     0.12  -0.09  -0.24    -0.28   0.21   0.56
    11   1    -0.00  -0.00  -0.01    -0.31  -0.13  -0.55    -0.13  -0.06  -0.23
    12   8     0.00   0.00  -0.00     0.04   0.02  -0.00     0.02   0.01  -0.00
    13   1    -0.00  -0.00   0.01    -0.28  -0.22   0.56    -0.12  -0.09   0.24
                     31                     32                     33
                      A                      A                      A
 Frequencies --   3703.3183              3794.9006              3796.4763
 Red. masses --      1.0865                 1.0848                 1.0849
 Frc consts  --      8.7796                 9.2041                 9.2133
 IR Inten    --    309.9504                85.6240               318.0337
  Atom  AN      X      Y      Z        X      Y      Z        X      Y      Z
     1  80     0.00   0.00   0.00    -0.00  -0.00   0.00    -0.00   0.00   0.00
     2   1     0.37   0.19   0.56     0.00   0.00   0.00     0.00   0.00   0.00
     3   8    -0.00   0.00  -0.07     0.00  -0.00  -0.00    -0.00   0.00  -0.00
     4   1    -0.33  -0.24   0.59    -0.00  -0.00   0.00    -0.00  -0.00   0.00
     5   1     0.00  -0.00   0.00     0.00   0.00   0.00    -0.00  -0.00  -0.00
     6   8    -0.00   0.00  -0.00     0.00   0.00  -0.00     0.00  -0.00  -0.00
     7   1     0.00   0.00   0.00    -0.00   0.00  -0.00     0.00   0.00  -0.00
     8   1    -0.00   0.00  -0.00    -0.12   0.05  -0.18     0.37  -0.15   0.55
     9   8     0.00  -0.00  -0.00     0.00   0.00   0.02    -0.00  -0.00  -0.07
    10   1     0.00  -0.00  -0.00     0.11  -0.07  -0.17    -0.33   0.22   0.53
    11   1    -0.00  -0.00  -0.00     0.36   0.16   0.55     0.12   0.05   0.18
    12   8     0.00  -0.00   0.00    -0.00   0.00  -0.07    -0.00   0.00  -0.02
    13   1     0.00   0.00  -0.00    -0.32  -0.23   0.53    -0.10  -0.07   0.17

 -------------------
 - Thermochemistry -
 -------------------
 Temperature   298.150 Kelvin.  Pressure   1.00000 Atm.
 Atom     1 has atomic number 80 and mass 201.97060
 Atom     2 has atomic number  1 and mass   1.00783
 Atom     3 has atomic number  8 and mass  15.99491
 Atom     4 has atomic number  1 and mass   1.00783
 Atom     5 has atomic number  1 and mass   1.00783
 Atom     6 has atomic number  8 and mass  15.99491
 Atom     7 has atomic number  1 and mass   1.00783
 Atom     8 has atomic number  1 and mass   1.00783
 Atom     9 has atomic number  8 and mass  15.99491
 Atom    10 has atomic number  1 and mass   1.00783
 Atom    11 has atomic number  1 and mass   1.00783
 Atom    12 has atomic number  8 and mass  15.99491
 Atom    13 has atomic number  1 and mass   1.00783
 Molecular mass:   274.01286 amu.
 Principal axes and moments of inertia in atomic units:
                           1         2         3
     Eigenvalues --   638.328821702.535942309.28074
           X            0.99999   0.00432   0.00033
           Y           -0.00432   0.99999  -0.00048
           Z           -0.00034   0.00047   1.00000
 This molecule is an asymmetric top.
 Rotational symmetry number  1.
 Warning -- assumption of classical behavior for rotation
           may cause significant error
 Rotational temperatures (Kelvin)      0.13569     0.05087     0.03751
 Rotational constants (GHZ):           2.82729     1.06003     0.78152
    4 imaginary frequencies ignored.
 Zero-point vibrational energy     252866.5 (Joules/Mol)
                                   60.43654 (Kcal/Mol)
 Warning -- explicit consideration of   9 degrees of freedom as
           vibrations may cause significant error
 Vibrational temperatures:     27.14    87.43   168.17   174.67   464.77
          (Kelvin)            524.48   571.04   592.65   701.03   929.51
                              969.50   993.88  1052.44  1125.36  1841.16
                             2010.39  2043.06  2123.70  2158.51  2515.62
                             2538.42  2559.17  2601.91  5182.65  5307.91
                             5310.59  5328.25  5460.02  5462.28
 
 Zero-point correction=                           0.096312 (Hartree/Particle)
 Thermal correction to Energy=                    0.104441
 Thermal correction to Enthalpy=                  0.105386
 Thermal correction to Gibbs Free Energy=         0.059747
 Sum of electronic and zero-point Energies=           -220.108270
 Sum of electronic and thermal Energies=              -220.100140
 Sum of electronic and thermal Enthalpies=            -220.099196
 Sum of electronic and thermal Free Energies=         -220.144834
 
                     E (Thermal)             CV                S
                      KCal/Mol        Cal/Mol-Kelvin    Cal/Mol-Kelvin
 Total                   65.538             25.907             96.054
 Electronic               0.000              0.000              0.000
 Translational            0.889              2.981             42.723
 Rotational               0.889              2.981             29.308
 Vibrational             63.761             19.945             24.023
 Vibration     1          0.593              1.986              6.750
 Vibration     2          0.597              1.973              4.432
 Vibration     3          0.608              1.935              3.151
 Vibration     4          0.609              1.931              3.078
 Vibration     5          0.708              1.629              1.295
 Vibration     6          0.738              1.545              1.103
 Vibration     7          0.763              1.477              0.974
 Vibration     8          0.776              1.444              0.920
 Vibration     9          0.843              1.278              0.691
                       Q            Log10(Q)             Ln(Q)
 Total Bot       0.329764D-27        -27.481796        -63.279174
 Total V=0       0.658415D+17         16.818500         38.726026
 Vib (Bot)       0.326166D-41        -41.486561        -95.526337
 Vib (Bot)    1  0.109807D+02          1.040629          2.396138
 Vib (Bot)    2  0.339804D+01          0.531229          1.223200
 Vib (Bot)    3  0.174957D+01          0.242932          0.559372
 Vib (Bot)    4  0.168279D+01          0.226029          0.520451
 Vib (Bot)    5  0.580875D+00         -0.235918         -0.543220
 Vib (Bot)    6  0.501291D+00         -0.299910         -0.690568
 Vib (Bot)    7  0.450099D+00         -0.346692         -0.798288
 Vib (Bot)    8  0.428901D+00         -0.367643         -0.846529
 Vib (Bot)    9  0.341116D+00         -0.467098         -1.075532
 Vib (V=0)       0.651231D+03          2.813735          6.478864
 Vib (V=0)    1  0.114921D+02          1.060398          2.441657
 Vib (V=0)    2  0.393463D+01          0.594904          1.369817
 Vib (V=0)    3  0.231962D+01          0.365416          0.841402
 Vib (V=0)    4  0.225550D+01          0.353242          0.813370
 Vib (V=0)    5  0.126643D+01          0.102581          0.236202
 Vib (V=0)    6  0.120802D+01          0.082074          0.188983
 Vib (V=0)    7  0.117275D+01          0.069204          0.159349
 Vib (V=0)    8  0.115875D+01          0.063991          0.147345
 Vib (V=0)    9  0.110528D+01          0.043471          0.100096
 Electronic      0.100000D+01          0.000000          0.000000
 Translational   0.178283D+09          8.251110         18.998884
 Rotational      0.567093D+06          5.753654         13.248279
 
                      file 'w4s3.log' Now we use Def2-QZVPPD, but it was opt at: 
 ---' #p ZORA-SR+SO PBE QZ4P'---
                                                             IR Spectrum
 
     33333  3                                                          1111       11 11   1                                          
     77766  6                                                          8777       54 43   2               7 7666    4 433 3     11   
     99098  0                                                          0764       07 29   8               8 3974    8 196 2     216 1
     65319  2                                                          8948       06 07   0               2 1146    7 275 3     171 9
 
     XXXXX  X                                                          XXXX       XX XX   X               X XXXX    X XXX X     XXX X
     X X    X                                                          XX         XX XX   X                  XXX       X             
                                                                       XX         XX XX   X                  X X       X             
                                                                       XX         XX  X   X                    X       X             
                                                                       XX         XX  X   X                    X                     
                                                                       XX         XX  X                                              
                                                                       X          XX  X                                              
                                                                       X          XX  X                                              
                                                                       X          XX  X                                              
                                                                       X          XX                                                 
                                                                       X          XX                                                 
                                                                       X          X                                                  
                                                                       X                                                             
                                                                       X                                                             
                                                                       X                                                             
                                                                       X                                                             
                                                                       X                                                             
                                                                       X                                                             
                                                                       X                                                             
                                                                       X                                                             
 
 ***** Axes restored to original set *****
 -------------------------------------------------------------------
 Center     Atomic                   Forces (Hartrees/Bohr)
 Number     Number              X              Y              Z
 -------------------------------------------------------------------
      1       80           0.006361558   -0.005519471   -0.001362094
      2        1           0.004962650   -0.007435029   -0.007101537
      3        8           0.000584113    0.019008492   -0.000415952
      4        1           0.004352210   -0.006955126    0.007974136
      5        1           0.004793057   -0.005537665   -0.004821435
      6        8          -0.014221386    0.001305357    0.008533806
      7        1           0.005030737    0.004679420   -0.004678509
      8        1           0.003533945    0.003887515    0.009757169
      9        8          -0.013753303   -0.004800082    0.000357439
     10        1           0.004317904    0.004707989   -0.009164509
     11        1           0.003572075   -0.004078807    0.009664071
     12        8          -0.013879308    0.005625440    0.000304270
     13        1           0.004345747   -0.004888034   -0.009046857
 -------------------------------------------------------------------
 Cartesian Forces:  Max     0.019008492 RMS     0.007250705
 Z-matrix is all fixed cartesians, so copy forces.
 Force constants in Cartesian coordinates: 
                1             2             3             4             5 
      1  0.426584D+00
      2 -0.601784D-02  0.332009D-01
      3  0.208412D-01  0.876900D-04  0.351263D-01
      4 -0.120762D-01 -0.460825D-02  0.120454D-01  0.167182D+00
      5  0.436754D-02  0.197420D-02 -0.176073D-02  0.711208D-01  0.407803D-01
      6 -0.772988D-03  0.103659D-02  0.646561D-02 -0.175729D+00 -0.867564D-01
      7 -0.143932D+00  0.117436D-01 -0.622563D-02 -0.170864D+00 -0.804535D-01
      8 -0.538902D-02 -0.163983D-01 -0.843413D-03 -0.690476D-01 -0.502973D-01
      9 -0.449425D-02 -0.100991D-03 -0.346997D-01  0.186785D+00  0.106756D+00
     10 -0.106711D-01 -0.538916D-02 -0.133182D-01  0.147476D-01  0.500988D-02
     11  0.414719D-02  0.204308D-02  0.241092D-02  0.187748D-02  0.722420D-02
     12 -0.109540D-02 -0.124141D-02  0.530473D-02 -0.218320D-01 -0.186769D-01
     13 -0.197860D-01  0.956108D-02  0.952715D-03 -0.489264D-03 -0.980680D-04
     14  0.832249D-02  0.129737D-01  0.610506D-03  0.545771D-03  0.348704D-03
     15 -0.238085D-02  0.238559D-02  0.895064D-03 -0.135401D-03 -0.641891D-04
     16 -0.228798D+00  0.329582D-02 -0.158892D-01  0.165466D-02 -0.388322D-04
     17  0.251667D-02 -0.364139D-01  0.188381D-03  0.895444D-03 -0.572843D-04
     18 -0.946048D-02  0.269556D-03 -0.138943D-01 -0.105690D-02  0.412457D-03
     19 -0.202554D-01 -0.825062D-02  0.897599D-03 -0.474256D-03  0.110400D-03
     20 -0.774833D-02  0.141529D-01 -0.711641D-03 -0.964430D-03  0.254206D-03
     21 -0.244360D-02 -0.247787D-02  0.789840D-03 -0.895631D-04  0.953048D-04
     22 -0.783070D-04  0.618865D-03  0.663332D-03 -0.460523D-04  0.467282D-04
     23  0.674938D-03  0.135456D-04 -0.173366D-03  0.389177D-04  0.570285D-04
     24  0.687510D-03  0.233234D-03  0.589205D-03  0.460417D-04 -0.902973D-05
     25  0.447762D-02 -0.617410D-03  0.311200D-03  0.248791D-03 -0.955987D-04
     26 -0.829706D-02 -0.563949D-02 -0.720101D-03 -0.282562D-03 -0.250217D-03
     27 -0.132730D-03 -0.540310D-03 -0.110185D-02 -0.893913D-05  0.305456D-04
     28  0.217854D-05  0.753036D-03 -0.635966D-03 -0.751094D-04  0.910165D-04
     29  0.661510D-03  0.128327D-03 -0.682698D-04  0.320027D-04  0.705270D-04
     30 -0.666826D-03 -0.256696D-03  0.512363D-03 -0.221246D-04 -0.167669D-04
[...]
                          X10       Y13       Y11       Z8        Z4
   1                    0.16072   0.12883  -0.12364  -0.12161   0.12069
 Eigenvalue     4 is  -4.24D-04 should be greater than     0.000000 Eigenvector:
                          Z6        Z2        Z4        Z13       Z11
   1                    0.32317  -0.27824  -0.26259  -0.24866  -0.24700
                          Z10       Z8        X8        Z5        X11
   1                   -0.24190  -0.24038  -0.23646   0.23162  -0.22712
 Quadratic step=1.858D+00 exceeds max=3.000D-01 adjusted using Lamda=-6.140D-02.
 Angle between NR and scaled steps=  64.02 degrees.
 Angle between quadratic step and forces=  28.96 degrees.
 Linear search not attempted -- first point.
 B after Tr=    -0.009940    0.004082    0.000480
         Rot=    1.000000    0.000069   -0.000191   -0.000876 Ang=   0.10 deg.
 Variable       Old X    -DE/DX   Delta X   Delta X   Delta X     New X
                                 (Linear)    (Quad)   (Total)
    X1        2.31046   0.00636   0.00000   0.02886   0.01914   2.32960
    Y1       -0.08094  -0.00552   0.00000  -0.04275  -0.03457  -0.11551
    Z1        0.03093  -0.00136   0.00000  -0.01040  -0.01080   0.02013
    X2        7.22715   0.00496   0.00000   0.08102   0.07035   7.29750
    Y2        0.19894  -0.00744   0.00000  -0.06999  -0.05329   0.14565
    Z2       -1.26082  -0.00710   0.00000  -0.02822  -0.03055  -1.29137
    X3        6.23626   0.00058   0.00000   0.01835   0.00882   6.24507
    Y3       -0.31796   0.01901   0.00000   0.12541   0.14048  -0.17748
    Z3        0.21912  -0.00042   0.00000  -0.00516  -0.00704   0.21208
    X4        7.09448   0.00435   0.00000   0.07151   0.06183   7.15631
    Y4        0.30067  -0.00696   0.00000  -0.06804  -0.05116   0.24951
    Z4        1.74195   0.00797   0.00000   0.04089   0.03859   1.78054
    X5       -2.41013   0.00479   0.00000   0.01352   0.00050  -2.40963
    Y5        1.79389  -0.00554   0.00000  -0.03682  -0.03694   1.75695
    Z5        0.00976  -0.00482   0.00000  -0.02321  -0.02205  -0.01230
    X6       -1.40570  -0.01422   0.00000  -0.00328  -0.01322  -1.41892
    Y6       -0.03356   0.00131   0.00000  -0.00457  -0.00298  -0.03654
    Z6       -0.23828   0.00853   0.00000   0.06086   0.06188  -0.17639
    X7       -2.45597   0.00503   0.00000   0.00396  -0.00282  -2.45879
    Y7       -1.84644   0.00468   0.00000   0.04261   0.04240  -1.80404
    Z7        0.01000  -0.00468   0.00000  -0.02484  -0.02318  -0.01318
    X8       -4.52441   0.00353   0.00000   0.03136   0.01412  -4.51029
    Y8        4.48689   0.00389   0.00000   0.05226   0.04870   4.53558
    Z8        1.65160   0.00976   0.00000   0.03843   0.04001   1.69161
    X9       -3.51692  -0.01375   0.00000  -0.07688  -0.09380  -3.61073
    Y9        4.06198  -0.00480   0.00000  -0.03901  -0.04121   4.02077
    Z9        0.16894   0.00036   0.00000  -0.01139  -0.01009   0.15884
   X10       -4.42224   0.00432   0.00000   0.02954   0.01076  -4.41148
   Y10        4.69436   0.00471   0.00000   0.06236   0.05855   4.75292
   Z10       -1.30627  -0.00916   0.00000  -0.03504  -0.03354  -1.33981
   X11       -4.61261   0.00357   0.00000   0.01471   0.01336  -4.59925
   Y11       -4.48611  -0.00408   0.00000  -0.04875  -0.05248  -4.53859
   Z11        1.64870   0.00966   0.00000   0.03780   0.04067   1.68936
   X12       -3.59792  -0.01388   0.00000  -0.09599  -0.09881  -3.69673
   Y12       -4.07923   0.00563   0.00000   0.04711   0.04475  -4.03449
   Z12        0.16567   0.00030   0.00000  -0.01286  -0.01041   0.15526
   X13       -4.51231   0.00435   0.00000   0.01189   0.00977  -4.50254
   Y13       -4.69423  -0.00489   0.00000  -0.05828  -0.06226  -4.75649
   Z13       -1.31153  -0.00905   0.00000  -0.03634  -0.03348  -1.34501
         Item               Value     Threshold  Converged?
 Maximum Force            0.019008     0.000450     NO 
 RMS     Force            0.007251     0.000300     NO 
 Maximum Displacement     0.140476     0.001800     NO 
 RMS     Displacement     0.047337     0.001200     NO 
 Predicted change in Energy=-8.708274D-03
 GradGradGradGradGradGradGradGradGradGradGradGradGradGradGradGradGradGrad

 Leave Link  103 at Wed May 11 21:26:00 2022, MaxMem= 67108864000 cpu:               1.2 elap:               0.1
 (Enter /cm/shared/apps/gaussian/intel/EM64T/SSE4_2-enabled/binary//g16/l9999.exe)

 ----------------------------------------------------------------------

 Electric dipole moment (input orientation):
 (Debye = 10**-18 statcoulomb cm , SI units = C m)
                  (au)            (Debye)         (10**-30 SI)
   Tot        0.166680D+01      0.423658D+01      0.141317D+02
   x         -0.156671D+01     -0.398218D+01     -0.132831D+02
   y          0.507970D+00      0.129113D+01      0.430675D+01
   z          0.256126D+00      0.651007D+00      0.217152D+01

 Dipole polarizability, Alpha (input orientation).
 (esu units = cm**3 , SI units = C**2 m**2 J**-1)
 Alpha(0;0):
               (au)            (10**-24 esu)      (10**-40 SI)
   iso        0.433971D+02      0.643078D+01      0.715521D+01
   aniso      0.204152D+02      0.302523D+01      0.336602D+01
   xx         0.566338D+02      0.839226D+01      0.933765D+01
   yx         0.275382D+00      0.408075D-01      0.454044D-01
   yy         0.394667D+02      0.584837D+01      0.650718D+01
   zx         0.460469D+00      0.682344D-01      0.759210D-01
   zy         0.813329D-01      0.120523D-01      0.134100D-01
   zz         0.340907D+02      0.505173D+01      0.562080D+01

 ----------------------------------------------------------------------

 Dipole orientation:
    80          0.55001298          0.48984507         -2.19164099
     1          0.55666807          2.36169433         -6.92629154
     8          1.58735824          1.18934258         -5.92501209
     1          3.37331386          1.50716860         -6.30916697
     1         -0.10977918          1.04805146          2.81360629
     8         -0.56147272         -0.30727940          1.27445077
     1         -1.02419178         -2.31066227          1.74731078
     1          1.60705331          2.49889957          5.87393621
     8          0.34383536          2.81021396          4.56961724
     1         -1.09776216          3.61647684          5.38661565
     1         -0.64435232         -5.77272461          3.22180178
     8         -1.69968790         -4.69469005          2.16414952
     1         -3.45501199         -5.03703756          2.60921848

 Electric dipole moment (dipole orientation):
 (Debye = 10**-18 statcoulomb cm , SI units = C m)
                  (au)            (Debye)         (10**-30 SI)
   Tot        0.166680D+01      0.423658D+01      0.141317D+02
   x          0.000000D+00      0.000000D+00      0.000000D+00
   y          0.000000D+00      0.000000D+00      0.000000D+00
   z          0.166680D+01      0.423658D+01      0.141317D+02

 Dipole polarizability, Alpha (dipole orientation).
 (esu units = cm**3 , SI units = C**2 m**2 J**-1)
 Alpha(0;0):
               (au)            (10**-24 esu)      (10**-40 SI)
   iso        0.433971D+02      0.643078D+01      0.715521D+01
   aniso      0.204152D+02      0.302523D+01      0.336602D+01
   xx         0.359310D+02      0.532443D+01      0.592423D+01
   yx         0.275319D+01      0.407981D+00      0.453940D+00
   yy         0.400363D+02      0.593277D+01      0.660110D+01
   zx        -0.496358D+01     -0.735526D+00     -0.818383D+00
   zy        -0.381867D+01     -0.565868D+00     -0.629613D+00
   zz         0.542239D+02      0.803515D+01      0.894031D+01

 ----------------------------------------------------------------------
 1\1\GINC-CTCP002\Freq\RMP2-Full\SDDAll\H8Hg1O4(2+)\FLOREZ\11-May-2022\
 0\\#p MP2(full) SDDAll freq\\file 'w4s3.log' Now we use Def2-QZVPPD, b
 ut it was opt at: ---' #p ZORA-SR+SO PBE QZ4P'---\\2,1\Hg,1.222645,-0.
 042832,0.016366\H,3.824445,0.105276,-0.667197\O,3.300085,-0.168255,0.1
 15955\H,3.754236,0.159106,0.921798\H,-1.275385,0.949284,0.005164\O,-0.
 743865,-0.017758,-0.12609\H,-1.299642,-0.977095,0.005291\H,-2.394216,2
 .374358,0.87399\O,-1.861075,2.149505,0.089397\H,-2.34015,2.48415,-0.69
 1248\H,-2.440889,-2.373946,0.872452\O,-1.903936,-2.158637,0.087668\H,-
 2.387812,-2.484081,-0.694031\\Version=ES64L-G16RevA.03\State=1-A\HF=-2
 19.5504373\MP2=-220.2045814\RMSD=7.725e-09\RMSF=7.251e-03\ZeroPoint=0.
 0963118\Thermal=0.1044414\Dipole=-1.5667119,0.5079703,0.2561257\Dipole
 Deriv=1.9853829,-0.021694,0.0373213,0.0138841,1.031629,-0.0003966,0.01
 11841,-0.001783,1.0287232,0.4135086,-0.0278027,-0.0618307,-0.0207426,0
 .4383414,0.0182675,-0.1899867,0.0208978,0.4393376,-0.9938392,0.0736764
 ,-0.0205786,0.0266485,-0.533241,0.0024262,-0.0097821,0.00405,-0.514571
 2,0.3946324,-0.0216431,0.0595046,-0.0080175,0.435802,-0.0194355,0.1843
 282,-0.0225755,0.4606159,0.7744702,-0.6184405,-0.0160263,-1.1078999,1.
 4152603,0.0376484,-0.101799,0.0958266,0.3451841,-1.3275151,-0.014025,-
 0.0015324,-0.027298,-1.5923222,-0.0011071,0.1519676,0.0000236,-0.63275
 11,0.8195042,0.642105,-0.0167108,1.140548,1.4094593,-0.0373278,-0.1070
 36,-0.0965781,0.343438,0.3727296,0.0801008,0.0395253,0.0554122,0.42598
 76,0.0375601,-0.0102295,0.0525017,0.3930484,-0.775317,0.1064055,-0.003
 8694,0.3394292,-1.1714061,-0.031119,0.0212206,-0.0466278,-0.5178428,0.
 3772952,0.0846926,-0.0259377,0.0494632,0.4404206,-0.0318502,0.0189122,
 -0.0432679,0.3869094,0.3730106,-0.078684,0.0378191,-0.0548116,0.429288
 8,-0.0396344,-0.013873,-0.0552198,0.3951755,-0.7911857,-0.1217171,-0.0
 033646,-0.3583429,-1.1735157,0.0311702,0.0227514,0.0469648,-0.516195,0
 .3773233,-0.0829738,-0.0243196,-0.0482727,0.4442961,0.0337984,0.022342
 2,0.0457877,0.3889281\Polar=56.6337825,0.2753824,39.4667249,0.4604686,
 0.0813329,34.0907429\PG=C01 [X(H8Hg1O4)]\NImag=4\\0.42658442,-0.006017
 84,0.03320088,0.02084116,0.00008769,0.03512632,-0.01207624,-0.00460825
 ,0.01204541,0.16718207,0.00436754,0.00197420,-0.00176073,0.07112080,0.
 04078029,-0.00077299,0.00103659,0.00646561,-0.17572922,-0.08675642,0.3
 4306342,-0.14393222,0.01174360,-0.00622563,-0.17086394,-0.08045350,0.1
 5185786,0.44978851,-0.00538902,-0.01639825,-0.00084341,-0.06904760,-0.
 05029732,0.06927694,0.14902979,0.12453170,-0.00449425,-0.00010099,-0.0
 3469968,0.18678487,0.10675640,-0.32015834,-0.01464449,0.02556785,0.681
 92731,-0.01067111,-0.00538916,-0.01331821,0.01474761,0.00500988,0.0254
 2628,-0.14281599,-0.07389144,-0.16696937,0.13817495,0.00414719,0.00204
 308,0.00241092,0.00187748,0.00722420,0.01650648,-0.07968657,-0.0639740
 4,-0.13231698,0.07350170,0.05441455,-0.00109540,-0.00124141,0.00530473
 ,-0.02183204,-0.01867689,-0.02872148,-0.13150989,-0.09403157,-0.335111
 53,0.15343379,0.11387975,0.35896489,-0.01978604,0.00956108,0.00095272,
 -0.00048926,-0.00009807,0.00058014,0.00223332,-0.00054966,-0.00019427,
 -0.00055504,-0.00009077,-0.00058283,0.08759948,0.00832249,0.01297368,0
 .00061051,0.00054577,0.00034870,-0.00132630,-0.00602052,-0.00150904,-0
 .00048661,0.00032898,0.00042825,0.00144935,-0.00231491,0.07733743,-0.0
 0238085,0.00238559,0.00089506,-0.00013540,-0.00006419,-0.00014939,-0.0
 0073763,-0.00033480,0.00083966,0.00011134,0.00010749,0.00016714,-0.002
 44551,0.00048957,0.06881718,-0.22879760,0.00329582,-0.01588920,0.00165
 466,-0.00003883,-0.00141797,0.00523832,-0.00041188,-0.00016507,0.00136
 712,0.00014862,0.00160860,-0.07142855,0.01638130,0.00976175,0.38490655
 ,0.00251667,-0.03641390,0.00018838,0.00089544,-0.00005728,-0.00013588,
 -0.00084787,0.00813776,0.00013240,0.00102327,-0.00002405,0.00010880,0.
 01468310,-0.09903816,-0.01318986,-0.00386547,0.35960767,-0.00946048,0.
 00026956,-0.01389429,-0.00105690,0.00041246,-0.00053037,0.00158453,-0.
 00008450,0.00681221,0.00113601,-0.00045274,-0.00079711,0.00545577,-0.0
 0348195,-0.03416004,-0.01011688,0.00057511,0.05243475,-0.02025539,-0.0
 0825062,0.00089760,-0.00047426,0.00011040,0.00060322,0.00246429,0.0001
 0696,-0.00014971,-0.00050142,0.00007789,-0.00062068,0.02592748,-0.0044
 5140,-0.00366254,-0.06986182,-0.01260570,0.00525033,0.08573311,-0.0077
 4833,0.01415291,-0.00071164,-0.00096443,0.00025421,0.00144026,0.006441
 46,-0.00207053,0.00043310,-0.00078064,0.00010596,-0.00152400,0.0039336
 1,-0.00761289,0.00262206,-0.01347170,-0.09234623,0.00280277,-0.0010111
 4,0.07130170,-0.00244360,-0.00247787,0.00078984,-0.00008956,0.00009530
 ,-0.00010217,-0.00077574,0.00049005,0.00070799,0.00025276,-0.00014259,
 0.00025517,-0.00365272,-0.00262761,0.00144808,0.00953685,0.01238902,-0
 .03364150,-0.00211811,0.00032751,0.06941712,-0.00007831,0.00061887,0.0
 0066333,-0.00004605,0.00004673,0.00007381,0.00004858,-0.00010691,-0.00
 006220,-0.00007502,0.00008951,0.00000919,-0.00033903,-0.00445309,0.005
 16518,-0.00038382,0.00167277,-0.00112705,0.00018667,0.00056338,0.00012
 749,0.15750306,0.00067494,0.00001355,-0.00017337,0.00003892,0.00005703
 ,-0.00004030,-0.00016869,-0.00005221,-0.00002267,0.00002987,0.00007410
 ,0.00004700,0.00369362,0.00835200,-0.01316011,0.00167913,-0.00680540,0
 .00250526,0.00145093,-0.00017967,-0.00071922,-0.07483019,0.04802271,0.
 00068751,0.00023323,0.00058921,0.00004604,-0.00000903,-0.00002143,-0.0
 0035393,-0.00004840,-0.00009588,0.00000643,0.00002672,0.00015820,0.004
 81919,-0.00704921,0.00282590,-0.00335201,0.00547827,-0.00054398,-0.000
 38847,-0.00042677,0.00031015,-0.19320478,0.07633846,0.36571396,0.00447
 762,-0.00061741,0.00031120,0.00024879,-0.00009560,-0.00032840,-0.00109
 073,0.00006141,-0.00008476,0.00020962,-0.00008584,0.00035005,-0.015420
 54,-0.00723370,-0.00061862,-0.00924824,0.04235204,0.00311138,-0.008298
 09,-0.00341686,0.00118959,-0.16823823,0.07393513,0.16172841,0.33859069
 ,-0.00829706,-0.00563949,-0.00072010,-0.00028256,-0.00025022,0.0006484
 0,0.00272549,0.00079650,0.00020113,-0.00019411,-0.00031312,-0.00070114
 ,-0.02235575,0.00092690,0.00483966,0.04122348,-0.05880962,-0.00663130,
 0.00854544,0.00404885,-0.00116117,0.07753238,-0.05866081,-0.06291333,-
 0.19610055,0.20646201,-0.00013273,-0.00054031,-0.00110185,-0.00000894,
 0.00003055,-0.00005337,0.00025936,0.00008235,-0.00002530,0.00000697,-0
 .00006039,-0.00016819,-0.00165784,0.00570488,-0.04705184,0.00301185,-0
 .00703274,0.01493729,0.00121179,0.00005859,-0.00031666,0.21535233,-0.0
 8243690,-0.33683534,-0.02748754,-0.04033065,0.70471459,0.00000218,0.00
 075304,-0.00063597,-0.00007511,0.00009102,-0.00000659,0.00004806,-0.00
 011257,0.00006450,-0.00004113,0.00005475,-0.00007487,0.00029258,-0.003
 46609,-0.00657854,-0.00080531,0.00149251,0.00154062,0.00029566,0.00062
 322,0.00014102,0.01142384,-0.00592572,0.02978489,-0.14391707,0.0997225
 8,-0.19008338,0.13286126,0.00066151,0.00012833,-0.00006827,0.00003200,
 0.00007053,-0.00007176,-0.00025748,-0.00007916,0.00006374,0.00004953,0
 .00006892,0.00005582,0.00441311,0.00399644,0.01471233,0.00094539,-0.00
 472749,-0.00336626,0.00102833,-0.00010586,0.00029025,-0.00091063,0.009
 89648,-0.01198359,0.08733390,-0.08516016,0.12512076,-0.09292774,0.0763
 7006,-0.00066683,-0.00025670,0.00051236,-0.00002212,-0.00001677,0.0001
 4011,0.00031317,0.00003822,-0.00004276,-0.00003669,0.00001130,-0.00001
 795,-0.00449923,0.00669724,0.00612000,0.00359515,-0.00570283,-0.002522
 55,0.00040654,0.00035392,0.00023324,-0.02698299,0.01754931,-0.03212272
 ,-0.13776355,0.10639580,-0.33404439,0.16585166,-0.12479030,0.36166719,
 -0.00009832,-0.00063880,0.00069349,-0.00003403,-0.00003707,0.00006393,
 0.00003683,0.00009022,-0.00008324,-0.00005089,-0.00007106,0.00001756,0
 .00013815,-0.00057251,0.00014121,-0.00045619,-0.00181535,-0.00117892,-
 0.00035710,0.00469162,0.00552641,0.00018787,0.00012222,0.00006452,-0.0
 0029748,-0.00003557,-0.00004888,0.00012066,0.00012261,-0.00003252,0.15
 998654,-0.00069161,0.00002551,0.00015221,-0.00004466,0.00003584,0.0000
 5054,0.00017238,-0.00002930,0.00002368,-0.00003318,0.00004315,-0.00005
 078,-0.00145357,-0.00017426,0.00071871,-0.00186378,-0.00673557,-0.0024
 8265,-0.00359270,0.00845269,0.01336173,-0.00013813,-0.00066465,0.00001
 547,0.00084811,0.00027544,-0.00029483,-0.00014794,-0.00032874,0.000164
 81,0.07296980,0.04573108,0.00069466,-0.00026934,0.00060327,0.00005962,
 0.00000259,-0.00002768,-0.00037820,0.00009061,-0.00010107,0.00003131,-
 0.00002033,0.00015595,-0.00038521,0.00042321,0.00031323,-0.00353814,-0
 .00548767,-0.00054573,0.00506002,0.00708268,0.00290674,0.00006383,-0.0
 0002010,0.00024693,0.00010849,-0.00050815,-0.00027954,0.00005005,0.000
 16645,0.00005122,-0.19437783,-0.07286404,0.36543230,0.00465337,0.00034
 464,0.00031519,0.00027345,0.00004603,-0.00033480,-0.00118911,0.0001198
 3,-0.00007711,0.00023942,0.00007917,0.00035730,-0.00842996,0.00356386,
 0.00123506,-0.01131289,-0.04391206,0.00326086,-0.01512902,0.00752777,-
 0.00070359,-0.00031060,-0.00083910,0.00011412,0.00333782,-0.00249938,-
 0.00040268,-0.00036457,-0.00063223,-0.00013153,-0.17076353,-0.07199752
 ,0.16268270,0.34570369,0.00812874,-0.00620830,0.00073163,0.00048018,-0
 .00018671,-0.00070497,-0.00294427,0.00100535,-0.00018975,0.00040554,-0
 .00012647,0.00075440,-0.00839104,0.00406438,0.00116558,-0.04295259,-0.
 05811627,0.00661482,0.02297916,-0.00007482,-0.00492137,0.00004618,0.00
 027531,0.00050582,0.00237611,-0.00403910,-0.00045142,-0.00000370,0.000
 36459,-0.00042599,-0.07580909,-0.05643163,0.06000087,0.19422564,0.2014
 9131,-0.00010495,0.00057154,-0.00111489,-0.00001827,-0.00003555,-0.000
 04327,0.00027211,-0.00011966,-0.00000354,-0.00003115,0.00006332,-0.000
 16468,0.00121036,-0.00004812,-0.00029930,0.00317472,0.00698501,0.01498
 179,-0.00175077,-0.00573745,-0.04824134,-0.00004330,0.00029732,-0.0002
 7596,-0.00039043,0.00045005,0.00039806,-0.00002304,-0.00014916,-0.0001
 7241,0.21640602,0.07815019,-0.33683751,-0.02700230,0.04068491,0.706424
 93,-0.00002236,-0.00079496,-0.00065108,-0.00004769,-0.00006933,-0.0000
 1529,0.00003407,0.00010089,0.00007511,-0.00002813,-0.00004208,-0.00006
 078,0.00025741,-0.00063018,0.00014456,-0.00087224,-0.00158934,0.001600
 73,0.00026988,0.00361206,-0.00699081,0.00012104,0.00013894,0.00004807,
 -0.00035417,0.00001563,-0.00002033,0.00015895,0.00014170,-0.00003107,0
 .01158749,0.00597280,0.02992871,-0.14670808,-0.09854086,-0.19169901,0.
 13560383,-0.00067521,0.00014780,0.00009619,-0.00004309,0.00004654,0.00
 007642,0.00026619,-0.00006145,-0.00006128,-0.00006024,0.00003547,-0.00
 006932,-0.00103074,-0.00009343,-0.00029203,-0.00106948,-0.00467148,0.0
 0331943,-0.00438755,0.00407366,-0.01490406,-0.00013085,-0.00032844,-0.
 00016764,0.00064327,0.00036281,0.00015011,-0.00015335,-0.00049394,-0.0
 0001801,0.00098297,0.00980044,0.01140322,-0.08602666,-0.08201764,-0.12
 111239,0.09168475,0.07319966,-0.00067126,0.00030240,0.00052431,-0.0000
 4348,0.00002228,0.00013836,0.00033849,-0.00008367,-0.00004906,-0.00004
 947,-0.00001293,-0.00002515,0.00039943,-0.00035495,0.00023432,0.003790
 34,0.00569199,-0.00253047,-0.00473922,-0.00672101,0.00623334,-0.000034
 85,-0.00016470,0.00005096,-0.00012583,0.00043080,-0.00017345,-0.000030
 35,0.00001999,0.00019866,-0.02719176,-0.01694504,-0.03191812,-0.139313
 23,-0.10376452,-0.33465189,0.16767119,0.12157936,0.36196819\\-0.006361
 56,0.00551947,0.00136209,-0.00496265,0.00743503,0.00710154,-0.00058411
 ,-0.01900849,0.00041595,-0.00435221,0.00695513,-0.00797414,-0.00479306
 ,0.00553766,0.00482143,0.01422139,-0.00130536,-0.00853381,-0.00503074,
 -0.00467942,0.00467851,-0.00353395,-0.00388752,-0.00975717,0.01375330,
 0.00480008,-0.00035744,-0.00431790,-0.00470799,0.00916451,-0.00357207,
 0.00407881,-0.00966407,0.01387931,-0.00562544,-0.00030427,-0.00434575,
 0.00488803,0.00904686\\\@


 EXPERIENCE IS A WONDERFUL THING.  IT ENABLES
 YOU TO RECOGNIZE A MISTAKE WHEN YOU MAKE IT AGAIN.
           - BACK OF A SUGAR PACKET
 Job cpu time:       0 days  0 hours 17 minutes 23.1 seconds.
 Elapsed time:       0 days  0 hours  0 minutes 38.0 seconds.
 File lengths (MBytes):  RWF=   1059 Int=      0 D2E=      0 Chk=      3 Scr=      1
 Normal termination of Gaussian 16 at Wed May 11 21:26:01 2022.
