 Entering Gaussian System, Link 0=g16
 Initial command:
 /cm/shared/apps/gaussian/intel/EM64T/SSE4_2-enabled/binary//g16/l1.exe "/scratch/florez/25750/Gau-28229.inp" -scrdir="/scratch/florez/25750/"
 Entering Link 1 = /cm/shared/apps/gaussian/intel/EM64T/SSE4_2-enabled/binary//g16/l1.exe PID=     28232.
  
 Copyright (c) 1988,1990,1992,1993,1995,1998,2003,2009,2016,
            Gaussian, Inc.  All Rights Reserved.
  
 This is part of the Gaussian(R) 16 program.  It is based on
 the Gaussian(R) 09 system (copyright 2009, Gaussian, Inc.),
 the Gaussian(R) 03 system (copyright 2003, Gaussian, Inc.),
 the Gaussian(R) 98 system (copyright 1998, Gaussian, Inc.),
 the Gaussian(R) 94 system (copyright 1995, Gaussian, Inc.),
 the Gaussian 92(TM) system (copyright 1992, Gaussian, Inc.),
 the Gaussian 90(TM) system (copyright 1990, Gaussian, Inc.),
 the Gaussian 88(TM) system (copyright 1988, Gaussian, Inc.),
 the Gaussian 86(TM) system (copyright 1986, Carnegie Mellon
 University), and the Gaussian 82(TM) system (copyright 1983,
 Carnegie Mellon University). Gaussian is a federally registered
 trademark of Gaussian, Inc.
  
 This software contains proprietary and confidential information,
 including trade secrets, belonging to Gaussian, Inc.
  
 This software is provided under written license and may be
 used, copied, transmitted, or stored only in accord with that
 written license.
  
 The following legend is applicable only to US Government
 contracts under FAR:
  
                    RESTRICTED RIGHTS LEGEND
  
 Use, reproduction and disclosure by the US Government is
 subject to restrictions as set forth in subparagraphs (a)
 and (c) of the Commercial Computer Software - Restricted
 Rights clause in FAR 52.227-19.
  
 Gaussian, Inc.
 340 Quinnipiac St., Bldg. 40, Wallingford CT 06492
  
  
 ---------------------------------------------------------------
 Warning -- This program may not be used in any manner that
 competes with the business of Gaussian, Inc. or will provide
 assistance to any competitor of Gaussian, Inc.  The licensee
 of this program is prohibited from giving any competitor of
 Gaussian, Inc. access to this program.  By using this program,
 the user acknowledges that Gaussian, Inc. is engaged in the
 business of creating and licensing software in the field of
 computational chemistry and represents and warrants to the
 licensee that it is not a competitor of Gaussian, Inc. and that
 it will not use this program in any manner prohibited above.
 ---------------------------------------------------------------
  

 Cite this work as:
 Gaussian 16, Revision A.03,
 M. J. Frisch, G. W. Trucks, H. B. Schlegel, G. E. Scuseria, 
 M. A. Robb, J. R. Cheeseman, G. Scalmani, V. Barone, 
 G. A. Petersson, H. Nakatsuji, X. Li, M. Caricato, A. V. Marenich, 
 J. Bloino, B. G. Janesko, R. Gomperts, B. Mennucci, H. P. Hratchian, 
 J. V. Ortiz, A. F. Izmaylov, J. L. Sonnenberg, D. Williams-Young, 
 F. Ding, F. Lipparini, F. Egidi, J. Goings, B. Peng, A. Petrone, 
 T. Henderson, D. Ranasinghe, V. G. Zakrzewski, J. Gao, N. Rega, 
 G. Zheng, W. Liang, M. Hada, M. Ehara, K. Toyota, R. Fukuda, 
 J. Hasegawa, M. Ishida, T. Nakajima, Y. Honda, O. Kitao, H. Nakai, 
 T. Vreven, K. Throssell, J. A. Montgomery, Jr., J. E. Peralta, 
 F. Ogliaro, M. J. Bearpark, J. J. Heyd, E. N. Brothers, K. N. Kudin, 
 V. N. Staroverov, T. A. Keith, R. Kobayashi, J. Normand, 
 K. Raghavachari, A. P. Rendell, J. C. Burant, S. S. Iyengar, 
 J. Tomasi, M. Cossi, J. M. Millam, M. Klene, C. Adamo, R. Cammi, 
 J. W. Ochterski, R. L. Martin, K. Morokuma, O. Farkas, 
 J. B. Foresman, and D. J. Fox, Gaussian, Inc., Wallingford CT, 2016.
 
 ******************************************
 Gaussian 16:  ES64L-G16RevA.03 25-Dec-2016
                11-May-2022 
 ******************************************
 %chk=w5s2.chk
 %nproc=28
 Will use up to   28 processors via shared memory.
 %mem=500gb
 ------------------------
 #p MP2(full) SDDAll freq
 ------------------------
 1/10=4,30=1,38=1/1,3;
 2/12=2,17=6,18=5,40=1/2;
 3/5=17,6=6,11=9,25=1,30=1,71=2,140=1/1,2,3;
 4//1;
 5/5=2,38=5,98=1/2;
 8/6=3,8=1,10=90,19=11/1;
 9/15=3,16=-3/6;
 11/6=1,8=1,15=11,17=11,24=-1,27=1,28=-2,29=300,32=6,42=3/1,2,10;
 10/6=2,21=1/2;
 8/6=4,8=1,10=90,19=11/11,4;
 10/5=1,20=4/2;
 11/12=2,14=11,16=1,28=-2,42=3/2,10,12;
 6/7=2,8=2,9=2,10=2/1;
 7/8=1,10=1,12=2,25=1,44=2/1,2,3,16;
 1/10=4,30=1/3;
 99//99;
 Leave Link    1 at Wed May 11 21:27:40 2022, MaxMem= 67108864000 cpu:               2.1 elap:               0.1
 (Enter /cm/shared/apps/gaussian/intel/EM64T/SSE4_2-enabled/binary//g16/l101.exe)
 ----------------------------------------------------------------------
 file 'w5s2.log' Now we use Def2-QZVPPD, but it was opt at: ---' #p ZOR
 A-SR+SO PBE QZ4P'---
 ----------------------------------------------------------------------
 Symbolic Z-matrix:
 Charge =  2 Multiplicity = 1
 Hg(Fragment=1)        1.02973   0.4774    0.41041 
 H(Fragment=2)        -5.60412  -0.8399    0.47235 
 O(Fragment=2)        -4.89866  -0.73858  -0.19221 
 H(Fragment=2)        -5.31097  -0.8117   -1.07275 
 H(Fragment=2)         3.37901   1.46764  -0.05203 
 O(Fragment=2)         2.90141   0.67431  -0.35744 
 H(Fragment=2)         3.60637  -0.1879   -0.55697 
 H(Fragment=2)        -4.01531   0.19894  -0.03724 
 O(Fragment=2)        -3.19025   0.98377   0.01739 
 H(Fragment=2)        -3.48709   1.83069   0.39739 
 H(Fragment=2)         4.66998  -1.28114  -1.77008 
 O(Fragment=2)         4.34852  -1.22278  -0.85095 
 H(Fragment=2)         5.10016  -1.43417  -0.26695 
 H(Fragment=2)        -2.30654   0.7062    0.42975 
 O(Fragment=2)        -0.84085   0.3135    1.02416 
 H(Fragment=2)        -0.83884  -0.02219   1.94024 
 
 ITRead=  0  0  0  0  0  0  0  0  0  0  0  0  0  0  0  0
 MicOpt= -1 -1 -1 -1 -1 -1 -1 -1 -1 -1 -1 -1 -1 -1 -1 -1
 NAtoms=     16 NQM=       16 NQMF=       0 NMMI=      0 NMMIF=      0
                NMic=       0 NMicF=      0.
                    Isotopes and Nuclear Properties:
 (Nuclear quadrupole moments (NQMom) in fm**2, nuclear magnetic moments (NMagM)
  in nuclear magnetons)

  Atom         1           2           3           4           5           6           7           8           9          10
 IAtWgt=         202           1          16           1           1          16           1           1          16           1
 AtmWgt= 201.9706000   1.0078250  15.9949146   1.0078250   1.0078250  15.9949146   1.0078250   1.0078250  15.9949146   1.0078250
 NucSpn=           0           1           0           1           1           0           1           1           0           1
 AtZEff=  -0.0000000  -0.0000000  -0.0000000  -0.0000000  -0.0000000  -0.0000000  -0.0000000  -0.0000000  -0.0000000  -0.0000000
 NQMom=    0.0000000   0.0000000   0.0000000   0.0000000   0.0000000   0.0000000   0.0000000   0.0000000   0.0000000   0.0000000
 NMagM=    0.0000000   2.7928460   0.0000000   2.7928460   2.7928460   0.0000000   2.7928460   2.7928460   0.0000000   2.7928460
 AtZNuc=  80.0000000   1.0000000   8.0000000   1.0000000   1.0000000   8.0000000   1.0000000   1.0000000   8.0000000   1.0000000

  Atom        11          12          13          14          15          16
 IAtWgt=           1          16           1           1          16           1
 AtmWgt=   1.0078250  15.9949146   1.0078250   1.0078250  15.9949146   1.0078250
 NucSpn=           1           0           1           1           0           1
 AtZEff=  -0.0000000  -0.0000000  -0.0000000  -0.0000000  -0.0000000  -0.0000000
 NQMom=    0.0000000   0.0000000   0.0000000   0.0000000   0.0000000   0.0000000
 NMagM=    2.7928460   0.0000000   2.7928460   2.7928460   0.0000000   2.7928460
 AtZNuc=   1.0000000   8.0000000   1.0000000   1.0000000   8.0000000   1.0000000
 Leave Link  101 at Wed May 11 21:27:40 2022, MaxMem= 67108864000 cpu:               3.2 elap:               0.1
 (Enter /cm/shared/apps/gaussian/intel/EM64T/SSE4_2-enabled/binary//g16/l103.exe)

 GradGradGradGradGradGradGradGradGradGradGradGradGradGradGradGradGradGrad
 Berny optimization.
 Initialization pass.
 Trust Radius=3.00D-01 FncErr=1.00D-07 GrdErr=1.00D-07 EigMax=2.50D+02 EigMin=1.00D-04
 Number of steps in this run=      2 maximum allowed number of steps=      2.
 GradGradGradGradGradGradGradGradGradGradGradGradGradGradGradGradGradGrad

 Leave Link  103 at Wed May 11 21:27:40 2022, MaxMem= 67108864000 cpu:               0.8 elap:               0.1
 (Enter /cm/shared/apps/gaussian/intel/EM64T/SSE4_2-enabled/binary//g16/l202.exe)
                          Input orientation:                          
 ---------------------------------------------------------------------
 Center     Atomic      Atomic             Coordinates (Angstroms)
 Number     Number       Type             X           Y           Z
 ---------------------------------------------------------------------
      1         80           0        1.029734    0.477397    0.410412
      2          1           0       -5.604121   -0.839895    0.472347
      3          8           0       -4.898663   -0.738576   -0.192209
      4          1           0       -5.310966   -0.811696   -1.072749
      5          1           0        3.379012    1.467635   -0.052032
      6          8           0        2.901409    0.674311   -0.357441
      7          1           0        3.606367   -0.187903   -0.556968
      8          1           0       -4.015308    0.198937   -0.037236
      9          8           0       -3.190252    0.983765    0.017388
     10          1           0       -3.487093    1.830688    0.397394
     11          1           0        4.669984   -1.281137   -1.770078
     12          8           0        4.348520   -1.222778   -0.850954
     13          1           0        5.100160   -1.434171   -0.266950
     14          1           0       -2.306535    0.706204    0.429753
     15          8           0       -0.840849    0.313504    1.024157
     16          1           0       -0.838840   -0.022187    1.940239
 ---------------------------------------------------------------------
                    Distance matrix (angstroms):
                    1          2          3          4          5
     1  Hg   0.000000
     2  H    6.763662   0.000000
     3  O    6.081746   0.974459   0.000000
     4  H    6.638223   1.572913   0.975034   0.000000
     5  H    2.591049   9.289583   8.567784   9.041733   0.000000
     6  O    2.032619   8.679021   7.928725   8.376335   0.975060
     7  H    2.831517   9.290730   8.530640   8.953992   1.745697
     8  H    5.072512   1.965496   1.297406   1.942266   7.502385
     9  O    4.268391   3.059328   2.434966   2.984880   6.587426
    10  H    4.715219   3.408730   2.990197   3.531292   6.890369
    11  H    4.593299  10.525227   9.713035  10.016287   3.489131
    12  O    3.936493  10.047526   9.283253   9.670773   2.969267
    13  H    4.547667  10.746225  10.023268  10.460800   3.380683
    14  H    3.344162   3.642295   3.032054   3.686209   5.756504
    15  O    1.975506   4.931895   4.364891   5.064093   4.505267
    16  H    2.466075   5.052846   4.641413   5.449893   4.896835
                    6          7          8          9         10
     6  O    0.000000
     7  H    1.131455   0.000000
     8  H    6.940424   7.649163   0.000000
     9  O    6.111022   6.920746   1.140025   0.000000
    10  H    6.536049   7.436578   1.769329   0.974576   0.000000
    11  H    2.991183   1.948866   8.979290   8.373060   8.995515
    12  O    2.436520   1.306976   8.522736   7.902907   8.501697
    13  H    3.047686   1.966904   9.263453   8.640497   9.210948
    14  H    5.267198   6.060978   1.842635   1.013923   1.630714
    15  O    4.005433   4.746482   3.349160   2.642447   3.114047
    16  H    4.444537   5.101311   3.748233   3.199755   3.581447
                   11         12         13         14         15
    11  H    0.000000
    12  O    0.975466   0.000000
    13  H    1.570944   0.975044   0.000000
    14  H    7.580277   7.046342   7.741171   0.000000
    15  O    6.381215   5.727631   6.325892   1.629652   0.000000
    16  H    6.760070   6.011729   6.491310   2.228508   0.975653
                   16
    16  H    0.000000
 Stoichiometry    H10HgO5(2+)
 Framework group  C1[X(H10HgO5)]
 Deg. of freedom    42
 Full point group                 C1      NOp   1
 Largest Abelian subgroup         C1      NOp   1
 Largest concise Abelian subgroup C1      NOp   1
                         Standard orientation:                         
 ---------------------------------------------------------------------
 Center     Atomic      Atomic             Coordinates (Angstroms)
 Number     Number       Type             X           Y           Z
 ---------------------------------------------------------------------
      1         80           0       -0.523357   -0.279957    0.061822
      2          1           0        6.076880    1.062421    0.679905
      3          8           0        5.344070    1.320061    0.091533
      4          1           0        5.714007    1.891306   -0.606691
      5          1           0       -2.869749   -0.942157   -0.815372
      6          8           0       -2.423592   -0.094048   -0.635375
      7          1           0       -3.155111    0.700643   -0.298425
      8          1           0        4.488861    0.419292   -0.283294
      9          8           0        3.684039   -0.296434   -0.657000
     10          1           0        4.015893   -1.197153   -0.825452
     11          1           0       -4.296117    2.238368   -0.661174
     12          8           0       -3.931770    1.689481    0.058207
     13          1           0       -4.660228    1.504988    0.679513
     14          1           0        2.814413   -0.335805   -0.137153
     15          8           0        1.369440   -0.406972    0.613015
     16          1           0        1.402208   -0.642066    1.559353
 ---------------------------------------------------------------------
 Rotational constants (GHZ):           3.7652788           0.3891755           0.3660187
 Leave Link  202 at Wed May 11 21:27:40 2022, MaxMem= 67108864000 cpu:               0.3 elap:               0.0
 (Enter /cm/shared/apps/gaussian/intel/EM64T/SSE4_2-enabled/binary//g16/l301.exe)
 Standard basis: SDDAll (6D, 10F)
 Ernie: Thresh=  0.10000D-02 Tol=  0.10000D-05 Strict=F.
 There are   114 symmetry adapted cartesian basis functions of A   symmetry.
 There are   114 symmetry adapted basis functions of A   symmetry.
   114 basis functions,   200 primitive gaussians,   114 cartesian basis functions
    29 alpha electrons       29 beta electrons
       nuclear repulsion energy       245.2211586106 Hartrees.
 IExCor=    0 DFT=F Ex=HF Corr=None ExCW=0 ScaHFX=  1.000000
 ScaDFX=  1.000000  1.000000  1.000000  1.000000 ScalE2=  1.000000  1.000000
 IRadAn=      5 IRanWt=     -1 IRanGd=            0 ICorTp=0 IEmpDi=  4
 NAtoms=   16 NActive=   16 NUniq=   16 SFac= 1.00D+00 NAtFMM=   60 NAOKFM=F Big=F
 Integral buffers will be    131072 words long.
 Raffenetti 1 integral format.
 Two-electron integral symmetry is turned on.
 Leave Link  301 at Wed May 11 21:27:40 2022, MaxMem= 67108864000 cpu:               1.7 elap:               0.1
 (Enter /cm/shared/apps/gaussian/intel/EM64T/SSE4_2-enabled/binary//g16/l302.exe)
 NPDir=0 NMtPBC=     1 NCelOv=     1 NCel=       1 NClECP=     1 NCelD=      1
         NCelK=      1 NCelE2=     1 NClLst=     1 CellRange=     0.0.
 One-electron integrals computed using PRISM.
 One-electron integral symmetry used in STVInt
   1 Symmetry operations used in ECPInt.
 ECPInt:  NShTT=    1770 NPrTT=    5742 LenC2=    1672 LenP2D=    4191.
 LDataN:  DoStor=T MaxTD1= 7 Len=  274
 NBasis=   114 RedAO= T EigKep=  3.87D-04  NBF=   114
 NBsUse=   114 1.00D-06 EigRej= -1.00D+00 NBFU=   114
 Leave Link  302 at Wed May 11 21:27:41 2022, MaxMem= 67108864000 cpu:               6.0 elap:               0.2
 (Enter /cm/shared/apps/gaussian/intel/EM64T/SSE4_2-enabled/binary//g16/l303.exe)
 DipDrv:  MaxL=1.
 Leave Link  303 at Wed May 11 21:27:41 2022, MaxMem= 67108864000 cpu:               1.1 elap:               0.1
 (Enter /cm/shared/apps/gaussian/intel/EM64T/SSE4_2-enabled/binary//g16/l401.exe)
 ExpMin= 2.00D-02 ExpMax= 4.71D+01 ExpMxC= 4.71D+01 IAcc=3 IRadAn=         5 AccDes= 0.00D+00
 Harris functional with IExCor=  205 and IRadAn=       5 diagonalized for initial guess.
 HarFok:  IExCor=  205 AccDes= 0.00D+00 IRadAn=         5 IDoV= 1 UseB2=F ITyADJ=14
 ICtDFT=  3500011 ScaDFX=  1.000000  1.000000  1.000000  1.000000
 Defaulting to unpruned grid for atomic number  80.
 FoFCou: FMM=F IPFlag=           0 FMFlag=      100000 FMFlg1=           0
         NFxFlg=           0 DoJE=T BraDBF=F KetDBF=T FulRan=T
         wScrn=  0.000000 ICntrl=       500 IOpCl=  0 I1Cent=   200000004 NGrid=           0
         NMat0=    1 NMatS0=      1 NMatT0=    0 NMatD0=    1 NMtDS0=    0 NMtDT0=    0
 Petite list used in FoFCou.
 Harris En= -239.828753812377    
 JPrj=0 DoOrth=F DoCkMO=F.
 Leave Link  401 at Wed May 11 21:27:41 2022, MaxMem= 67108864000 cpu:               7.8 elap:               0.3
 (Enter /cm/shared/apps/gaussian/intel/EM64T/SSE4_2-enabled/binary//g16/l502.exe)
 Integral symmetry usage will be decided dynamically.
 Closed shell SCF:
 Using DIIS extrapolation, IDIIS=  1040.
 NGot= 67108864000 LenX= 67108833323 LenY= 67108819886
 Requested convergence on RMS density matrix=1.00D-08 within 128 cycles.
 Requested convergence on MAX density matrix=1.00D-06.
 Requested convergence on             energy=1.00D-06.
 No special actions if energy rises.
 Fock matrices will be formed incrementally for  20 cycles.

 Cycle   1  Pass 0  IDiag  1:
 FoFJK:  IHMeth= 1 ICntrl=       0 DoSepK=F KAlg= 0 I1Cent=           0 FoldK=F
 IRaf= 890000000 NMat=       1 IRICut=       1 DoRegI=T DoRafI=F ISym2E= 0 IDoP0=0 IntGTp=1.
 FoFCou: FMM=F IPFlag=           0 FMFlag=      100000 FMFlg1=           0
         NFxFlg=           0 DoJE=F BraDBF=F KetDBF=F FulRan=T
         wScrn=  0.000000 ICntrl=         0 IOpCl=  0 I1Cent=           0 NGrid=           0
         NMat0=    1 NMatS0=      1 NMatT0=    0 NMatD0=    1 NMtDS0=    0 NMtDT0=    0
 Symmetry not used in FoFCou.
 E= -236.048146700189    
 DIIS: error= 4.92D-02 at cycle   1 NSaved=   1.
 NSaved= 1 IEnMin= 1 EnMin= -236.048146700189     IErMin= 1 ErrMin= 4.92D-02
 ErrMax= 4.92D-02  0.00D+00 EMaxC= 1.00D-01 BMatC= 5.63D-01 BMatP= 5.63D-01
 IDIUse=3 WtCom= 5.08D-01 WtEn= 4.92D-01
 Coeff-Com:  0.100D+01
 Coeff-En:   0.100D+01
 Coeff:      0.100D+01
 Gap=     0.685 Goal=   None    Shift=    0.000
 GapD=    0.685 DampG=2.000 DampE=0.250 DampFc=0.5000 IDamp=-1.
 Damping current iteration by 5.00D-01
 RMSDP=8.82D-03 MaxDP=2.48D-01              OVMax= 2.40D-01

 Cycle   2  Pass 0  IDiag  1:
 RMSU=  4.35D-03    CP:  1.02D+00
 E= -236.290541917877     Delta-E=       -0.242395217688 Rises=F Damp=T
 DIIS: error= 1.25D-02 at cycle   2 NSaved=   2.
 NSaved= 2 IEnMin= 2 EnMin= -236.290541917877     IErMin= 2 ErrMin= 1.25D-02
 ErrMax= 1.25D-02  0.00D+00 EMaxC= 1.00D-01 BMatC= 3.45D-02 BMatP= 5.63D-01
 IDIUse=3 WtCom= 8.75D-01 WtEn= 1.25D-01
 Coeff-Com: -0.221D+00 0.122D+01
 Coeff-En:   0.000D+00 0.100D+01
 Coeff:     -0.194D+00 0.119D+01
 Gap=     0.564 Goal=   None    Shift=    0.000
 RMSDP=2.70D-03 MaxDP=6.45D-02 DE=-2.42D-01 OVMax= 8.36D-02

 Cycle   3  Pass 0  IDiag  1:
 RMSU=  2.42D-03    CP:  1.01D+00  1.27D+00
 E= -236.496982747999     Delta-E=       -0.206440830123 Rises=F Damp=F
 DIIS: error= 2.90D-03 at cycle   3 NSaved=   3.
 NSaved= 3 IEnMin= 3 EnMin= -236.496982747999     IErMin= 3 ErrMin= 2.90D-03
 ErrMax= 2.90D-03  0.00D+00 EMaxC= 1.00D-01 BMatC= 3.61D-03 BMatP= 3.45D-02
 IDIUse=3 WtCom= 9.71D-01 WtEn= 2.90D-02
 Coeff-Com:  0.213D-01-0.138D-01 0.993D+00
 Coeff-En:   0.000D+00 0.000D+00 0.100D+01
 Coeff:      0.206D-01-0.134D-01 0.993D+00
 Gap=     0.538 Goal=   None    Shift=    0.000
 RMSDP=9.95D-04 MaxDP=3.13D-02 DE=-2.06D-01 OVMax= 1.95D-02

 Cycle   4  Pass 0  IDiag  1:
 RMSU=  5.91D-04    CP:  1.00D+00  1.21D+00  1.29D+00
 E= -236.500630728654     Delta-E=       -0.003647980655 Rises=F Damp=F
 DIIS: error= 2.60D-03 at cycle   4 NSaved=   4.
 NSaved= 4 IEnMin= 4 EnMin= -236.500630728654     IErMin= 4 ErrMin= 2.60D-03
 ErrMax= 2.60D-03  0.00D+00 EMaxC= 1.00D-01 BMatC= 6.64D-04 BMatP= 3.61D-03
 IDIUse=3 WtCom= 9.74D-01 WtEn= 2.60D-02
 Coeff-Com:  0.380D-01-0.162D+00 0.304D+00 0.819D+00
 Coeff-En:   0.000D+00 0.000D+00 0.000D+00 0.100D+01
 Coeff:      0.370D-01-0.158D+00 0.297D+00 0.824D+00
 Gap=     0.541 Goal=   None    Shift=    0.000
 RMSDP=4.48D-04 MaxDP=1.26D-02 DE=-3.65D-03 OVMax= 1.65D-02

 Cycle   5  Pass 0  IDiag  1:
 RMSU=  2.39D-04    CP:  1.00D+00  1.20D+00  1.44D+00  1.10D+00
 E= -236.501680521819     Delta-E=       -0.001049793164 Rises=F Damp=F
 DIIS: error= 6.79D-04 at cycle   5 NSaved=   5.
 NSaved= 5 IEnMin= 5 EnMin= -236.501680521819     IErMin= 5 ErrMin= 6.79D-04
 ErrMax= 6.79D-04  0.00D+00 EMaxC= 1.00D-01 BMatC= 4.62D-05 BMatP= 6.64D-04
 IDIUse=3 WtCom= 9.93D-01 WtEn= 6.79D-03
 Coeff-Com: -0.153D-01 0.518D-01-0.124D+00-0.152D+00 0.124D+01
 Coeff-En:   0.000D+00 0.000D+00 0.000D+00 0.000D+00 0.100D+01
 Coeff:     -0.152D-01 0.514D-01-0.124D+00-0.151D+00 0.124D+01
 Gap=     0.536 Goal=   None    Shift=    0.000
 RMSDP=1.98D-04 MaxDP=4.97D-03 DE=-1.05D-03 OVMax= 5.86D-03

 Cycle   6  Pass 0  IDiag  1:
 RMSU=  6.87D-05    CP:  1.00D+00  1.21D+00  1.49D+00  1.25D+00  1.42D+00
 E= -236.501832967420     Delta-E=       -0.000152445601 Rises=F Damp=F
 DIIS: error= 1.92D-04 at cycle   6 NSaved=   6.
 NSaved= 6 IEnMin= 6 EnMin= -236.501832967420     IErMin= 6 ErrMin= 1.92D-04
 ErrMax= 1.92D-04  0.00D+00 EMaxC= 1.00D-01 BMatC= 1.24D-05 BMatP= 4.62D-05
 IDIUse=3 WtCom= 9.98D-01 WtEn= 1.92D-03
 Coeff-Com: -0.948D-02 0.366D-01-0.100D+00-0.168D+00 0.391D+00 0.850D+00
 Coeff-En:   0.000D+00 0.000D+00 0.000D+00 0.000D+00 0.000D+00 0.100D+01
 Coeff:     -0.946D-02 0.365D-01-0.100D+00-0.167D+00 0.390D+00 0.850D+00
 Gap=     0.536 Goal=   None    Shift=    0.000
 RMSDP=9.04D-05 MaxDP=2.15D-03 DE=-1.52D-04 OVMax= 2.98D-03

 Cycle   7  Pass 0  IDiag  1:
 RMSU=  2.33D-05    CP:  1.00D+00  1.20D+00  1.51D+00  1.31D+00  1.60D+00
                    CP:  1.26D+00
 E= -236.501857783735     Delta-E=       -0.000024816316 Rises=F Damp=F
 DIIS: error= 5.53D-05 at cycle   7 NSaved=   7.
 NSaved= 7 IEnMin= 7 EnMin= -236.501857783735     IErMin= 7 ErrMin= 5.53D-05
 ErrMax= 5.53D-05  0.00D+00 EMaxC= 1.00D-01 BMatC= 7.59D-07 BMatP= 1.24D-05
 IDIUse=1 WtCom= 1.00D+00 WtEn= 0.00D+00
 Coeff-Com:  0.297D-02-0.805D-02 0.158D-01 0.332D-01-0.155D+00-0.103D+00
 Coeff-Com:  0.121D+01
 Coeff:      0.297D-02-0.805D-02 0.158D-01 0.332D-01-0.155D+00-0.103D+00
 Coeff:      0.121D+01
 Gap=     0.536 Goal=   None    Shift=    0.000
 RMSDP=2.59D-05 MaxDP=5.49D-04 DE=-2.48D-05 OVMax= 8.38D-04

 Cycle   8  Pass 0  IDiag  1:
 RMSU=  6.49D-06    CP:  1.00D+00  1.20D+00  1.52D+00  1.32D+00  1.64D+00
                    CP:  1.42D+00  1.27D+00
 E= -236.501859458324     Delta-E=       -0.000001674589 Rises=F Damp=F
 DIIS: error= 1.18D-05 at cycle   8 NSaved=   8.
 NSaved= 8 IEnMin= 8 EnMin= -236.501859458324     IErMin= 8 ErrMin= 1.18D-05
 ErrMax= 1.18D-05  0.00D+00 EMaxC= 1.00D-01 BMatC= 5.11D-08 BMatP= 7.59D-07
 IDIUse=1 WtCom= 1.00D+00 WtEn= 0.00D+00
 Coeff-Com:  0.751D-03-0.224D-02 0.657D-02 0.105D-01-0.436D-01-0.379D-01
 Coeff-Com:  0.238D+00 0.828D+00
 Coeff:      0.751D-03-0.224D-02 0.657D-02 0.105D-01-0.436D-01-0.379D-01
 Coeff:      0.238D+00 0.828D+00
 Gap=     0.536 Goal=   None    Shift=    0.000
 RMSDP=2.44D-06 MaxDP=5.27D-05 DE=-1.67D-06 OVMax= 7.29D-05

 Initial convergence to 1.0D-05 achieved.  Increase integral accuracy.
 Cycle   9  Pass 1  IDiag  1:
 E= -236.501859527580     Delta-E=       -0.000000069256 Rises=F Damp=F
 DIIS: error= 5.15D-06 at cycle   1 NSaved=   1.
 NSaved= 1 IEnMin= 1 EnMin= -236.501859527580     IErMin= 1 ErrMin= 5.15D-06
 ErrMax= 5.15D-06  0.00D+00 EMaxC= 1.00D-01 BMatC= 8.27D-09 BMatP= 8.27D-09
 IDIUse=1 WtCom= 1.00D+00 WtEn= 0.00D+00
 Coeff-Com:  0.100D+01
 Coeff:      0.100D+01
 Gap=     0.535 Goal=   None    Shift=    0.000
 RMSDP=2.44D-06 MaxDP=5.27D-05 DE=-6.93D-08 OVMax= 4.57D-05

 Cycle  10  Pass 1  IDiag  1:
 RMSU=  1.07D-06    CP:  1.00D+00
 E= -236.501859542272     Delta-E=       -0.000000014691 Rises=F Damp=F
 DIIS: error= 2.87D-06 at cycle   2 NSaved=   2.
 NSaved= 2 IEnMin= 2 EnMin= -236.501859542272     IErMin= 2 ErrMin= 2.87D-06
 ErrMax= 2.87D-06  0.00D+00 EMaxC= 1.00D-01 BMatC= 2.49D-09 BMatP= 8.27D-09
 IDIUse=1 WtCom= 1.00D+00 WtEn= 0.00D+00
 Coeff-Com:  0.237D+00 0.763D+00
 Coeff:      0.237D+00 0.763D+00
 Gap=     0.535 Goal=   None    Shift=    0.000
 RMSDP=4.48D-07 MaxDP=1.23D-05 DE=-1.47D-08 OVMax= 1.87D-05

 Cycle  11  Pass 1  IDiag  1:
 RMSU=  3.90D-07    CP:  1.00D+00  1.21D+00
 E= -236.501859546036     Delta-E=       -0.000000003765 Rises=F Damp=F
 DIIS: error= 1.52D-06 at cycle   3 NSaved=   3.
 NSaved= 3 IEnMin= 3 EnMin= -236.501859546036     IErMin= 3 ErrMin= 1.52D-06
 ErrMax= 1.52D-06  0.00D+00 EMaxC= 1.00D-01 BMatC= 5.70D-10 BMatP= 2.49D-09
 IDIUse=1 WtCom= 1.00D+00 WtEn= 0.00D+00
 Coeff-Com: -0.367D+00-0.139D+00 0.151D+01
 Coeff:     -0.367D+00-0.139D+00 0.151D+01
 Gap=     0.535 Goal=   None    Shift=    0.000
 RMSDP=5.69D-07 MaxDP=1.64D-05 DE=-3.76D-09 OVMax= 2.68D-05

 Cycle  12  Pass 1  IDiag  1:
 RMSU=  1.46D-07    CP:  1.00D+00  1.67D+00  1.59D+00
 E= -236.501859547927     Delta-E=       -0.000000001891 Rises=F Damp=F
 DIIS: error= 2.30D-07 at cycle   4 NSaved=   4.
 NSaved= 4 IEnMin= 4 EnMin= -236.501859547927     IErMin= 4 ErrMin= 2.30D-07
 ErrMax= 2.30D-07  0.00D+00 EMaxC= 1.00D-01 BMatC= 1.83D-11 BMatP= 5.70D-10
 IDIUse=1 WtCom= 1.00D+00 WtEn= 0.00D+00
 Coeff-Com: -0.882D-01-0.515D-01 0.338D+00 0.801D+00
 Coeff:     -0.882D-01-0.515D-01 0.338D+00 0.801D+00
 Gap=     0.535 Goal=   None    Shift=    0.000
 RMSDP=6.32D-08 MaxDP=1.85D-06 DE=-1.89D-09 OVMax= 3.28D-06

 Cycle  13  Pass 1  IDiag  1:
 RMSU=  3.86D-08    CP:  1.00D+00  1.69D+00  1.66D+00  1.24D+00
 E= -236.501859547957     Delta-E=       -0.000000000030 Rises=F Damp=F
 DIIS: error= 8.86D-08 at cycle   5 NSaved=   5.
 NSaved= 5 IEnMin= 5 EnMin= -236.501859547957     IErMin= 5 ErrMin= 8.86D-08
 ErrMax= 8.86D-08  0.00D+00 EMaxC= 1.00D-01 BMatC= 3.42D-12 BMatP= 1.83D-11
 IDIUse=1 WtCom= 1.00D+00 WtEn= 0.00D+00
 Coeff-Com:  0.940D-01 0.359D-01-0.387D+00-0.353D-01 0.129D+01
 Coeff:      0.940D-01 0.359D-01-0.387D+00-0.353D-01 0.129D+01
 Gap=     0.535 Goal=   None    Shift=    0.000
 RMSDP=5.41D-08 MaxDP=1.50D-06 DE=-3.03D-11 OVMax= 2.35D-06

 Cycle  14  Pass 1  IDiag  1:
 RMSU=  1.23D-08    CP:  1.00D+00  1.70D+00  1.71D+00  1.56D+00  1.40D+00
 E= -236.501859547965     Delta-E=       -0.000000000007 Rises=F Damp=F
 DIIS: error= 2.54D-08 at cycle   6 NSaved=   6.
 NSaved= 6 IEnMin= 6 EnMin= -236.501859547965     IErMin= 6 ErrMin= 2.54D-08
 ErrMax= 2.54D-08  0.00D+00 EMaxC= 1.00D-01 BMatC= 1.68D-13 BMatP= 3.42D-12
 IDIUse=1 WtCom= 1.00D+00 WtEn= 0.00D+00
 Coeff-Com:  0.217D-01 0.920D-02-0.886D-01-0.289D-01 0.249D+00 0.838D+00
 Coeff:      0.217D-01 0.920D-02-0.886D-01-0.289D-01 0.249D+00 0.838D+00
 Gap=     0.535 Goal=   None    Shift=    0.000
 RMSDP=6.55D-09 MaxDP=1.48D-07 DE=-7.45D-12 OVMax= 3.06D-07

 SCF Done:  E(RHF) =  -236.501859548     A.U. after   14 cycles
            NFock= 14  Conv=0.66D-08     -V/T= 2.9974
 KE= 1.184028417343D+02 PE=-9.963214548261D+02 EE= 3.961955949332D+02
 Leave Link  502 at Wed May 11 21:27:43 2022, MaxMem= 67108864000 cpu:              54.3 elap:               2.0
 (Enter /cm/shared/apps/gaussian/intel/EM64T/SSE4_2-enabled/binary//g16/l801.exe)
 Range of M.O.s used for correlation:     1   114
 NBasis=   114 NAE=    29 NBE=    29 NFC=     0 NFV=     0
 NROrb=    114 NOA=    29 NOB=    29 NVA=    85 NVB=    85

 **** Warning!!: The largest alpha MO coefficient is  0.28642841D+02

 Leave Link  801 at Wed May 11 21:27:43 2022, MaxMem= 67108864000 cpu:               1.0 elap:               0.1
 (Enter /cm/shared/apps/gaussian/intel/EM64T/SSE4_2-enabled/binary//g16/l906.exe)
 FulOut=F Deriv=T AODrv=T NAtomX=    16
   MMem=           0  MDisk=          29 MDiskD=          29
  W3Min=      376884 MinDsk=     1164521 NBas6D=         114
 NBas2D=        6660    NTT=        6555    LW2=     3308096
    MDV= 67108681387 MDiskM=     8175765 NBas2p=        6140
 Disk-based method using ON**2 memory for 29 occupieds at a time.
 Permanent disk used for amplitudes=     7525645 words.
 Estimated scratch disk usage=    77351544 words.
 IMap=   1   2   3   4   5   6   7   8   9  10  11  12  13  14  15  16  17  18  19  20
 IMap=  21  22  23  24  25  26  27  28  29
 Actual    scratch disk usage=    71109240 words.
 JobTyp=1 Pass  1:  I=   1 to  29 NPSUse= 28 ParTrn=T ParDer=T DoDerP=T.
 (rs|ai) integrals will be sorted in core.
 Spin components of T(2) and E(2):
     alpha-alpha T2 =       0.3160060607D-01 E2=     -0.1010119715D+00
     alpha-beta  T2 =       0.1831984934D+00 E2=     -0.5926609971D+00
     beta-beta   T2 =       0.3160060607D-01 E2=     -0.1010119715D+00
 The integrals were generated   1 times.
 ANorm=    0.1116422727D+01
 E2 =    -0.7946849400D+00 EUMP2 =    -0.23729654448798D+03
 Leave Link  906 at Wed May 11 21:27:53 2022, MaxMem= 67108864000 cpu:             276.1 elap:               9.9
 (Enter /cm/shared/apps/gaussian/intel/EM64T/SSE4_2-enabled/binary//g16/l1101.exe)
 Using compressed Sx but separate Hx and Fx, NAtomX=    16.
 Will process     17 centers per pass.
   1 Symmetry operations used in ECPInt.
 ECPInt:  NShTT=    1770 NPrTT=    5742 LenC2=    1672 LenP2D=    4191.
 LDataN:  DoStor=T MaxTD1= 8 Len=  415
 Leave Link 1101 at Wed May 11 21:27:54 2022, MaxMem= 67108864000 cpu:              11.7 elap:               0.4
 (Enter /cm/shared/apps/gaussian/intel/EM64T/SSE4_2-enabled/binary//g16/l1102.exe)
 Leave Link 1102 at Wed May 11 21:27:54 2022, MaxMem= 67108864000 cpu:               1.1 elap:               0.1
 (Enter /cm/shared/apps/gaussian/intel/EM64T/SSE4_2-enabled/binary//g16/l1110.exe)
 Forming Gx(P) for the SCF density, NAtomX=    16.
 Integral derivatives from FoFJK, PRISM(SPDF).
 Do as many integral derivatives as possible in FoFJK.
 G2DrvN: MDV=   67108862744.
 G2DrvN: will do    17 centers at a time, making    1 passes.
 Calling FoFCou, ICntrl=  3107 FMM=F I1Cent=   0 AccDes= 0.00D+00.
 FoFJK:  IHMeth= 1 ICntrl=    3107 DoSepK=F KAlg= 0 I1Cent=           0 FoldK=F
 IRaf=         0 NMat=       1 IRICut=       1 DoRegI=T DoRafI=F ISym2E= 0 IDoP0=0 IntGTp=1.
 FoFCou: FMM=F IPFlag=           0 FMFlag=      100000 FMFlg1=           0
         NFxFlg=           0 DoJE=F BraDBF=F KetDBF=F FulRan=T
         wScrn=  0.000000 ICntrl=      3107 IOpCl=  0 I1Cent=           0 NGrid=           0
         NMat0=    1 NMatS0=      1 NMatT0=    0 NMatD0=    1 NMtDS0=    0 NMtDT0=    0
 Symmetry not used in FoFCou.
 End of G2Drv F.D. properties file   721 does not exist.
 End of G2Drv F.D. properties file   722 does not exist.
 End of G2Drv F.D. properties file   788 does not exist.
 Leave Link 1110 at Wed May 11 21:27:54 2022, MaxMem= 67108864000 cpu:               9.1 elap:               0.4
 (Enter /cm/shared/apps/gaussian/intel/EM64T/SSE4_2-enabled/binary//g16/l1002.exe)
 Minotr:  Closed shell wavefunction.
          IDoAtm=1111111111111111
          Direct CPHF calculation.
          Differentiating once with respect to electric field.
                with respect to dipole field.
          Differentiating once with respect to nuclear coordinates.
          Requested convergence is 1.0D-08 RMS, and 1.0D-07 maximum.
          Secondary convergence is 1.0D-12 RMS, and 1.0D-12 maximum.
          NewPWx=T KeepS1=T KeepF1=T KeepIn=T MapXYZ=F SortEE=F KeepMc=T.
 Keep R1 ints in memory in canonical form, NReq=27422798.
 FoFCou: FMM=F IPFlag=           0 FMFlag=           0 FMFlg1=           0
         NFxFlg=           0 DoJE=F BraDBF=F KetDBF=F FulRan=T
         wScrn=  0.000000 ICntrl=       600 IOpCl=  0 I1Cent=           0 NGrid=           0
         NMat0=    1 NMatS0=   6555 NMatT0=    0 NMatD0=    1 NMtDS0=    0 NMtDT0=    0
 Symmetry not used in FoFCou.
 Two-electron integral symmetry not used.
          MDV=   67108864000 using IRadAn=       1.
          Solving linear equations simultaneously, MaxMat=       0.
          There are    51 degrees of freedom in the 1st order CPHF.  IDoFFX=6 NUNeed=    51.
     48 vectors produced by pass  0 Test12= 4.83D-15 1.96D-09 XBig12= 1.25D+01 1.66D+00.
 AX will form    48 AO Fock derivatives at one time.
     48 vectors produced by pass  1 Test12= 4.83D-15 1.96D-09 XBig12= 3.15D-01 9.94D-02.
     48 vectors produced by pass  2 Test12= 4.83D-15 1.96D-09 XBig12= 7.51D-03 1.82D-02.
     48 vectors produced by pass  3 Test12= 4.83D-15 1.96D-09 XBig12= 5.77D-05 1.25D-03.
     48 vectors produced by pass  4 Test12= 4.83D-15 1.96D-09 XBig12= 3.65D-07 1.31D-04.
     48 vectors produced by pass  5 Test12= 4.83D-15 1.96D-09 XBig12= 2.56D-09 8.32D-06.
     25 vectors produced by pass  6 Test12= 4.83D-15 1.96D-09 XBig12= 1.31D-11 4.47D-07.
      3 vectors produced by pass  7 Test12= 4.83D-15 1.96D-09 XBig12= 5.64D-14 2.37D-08.
 InvSVY:  IOpt=1 It=  1 EMax= 2.66D-15
 Solved reduced A of dimension   316 with    51 vectors.
 FullF1:  Do perturbations      1 to      51.
 Saving first derivative matrices.
 End of Minotr F.D. properties file   721 does not exist.
 End of Minotr F.D. properties file   722 does not exist.
 End of Minotr F.D. properties file   788 does not exist.
 Leave Link 1002 at Wed May 11 21:27:55 2022, MaxMem= 67108864000 cpu:              29.9 elap:               1.1
 (Enter /cm/shared/apps/gaussian/intel/EM64T/SSE4_2-enabled/binary//g16/l811.exe)
 MDV= 67108864000.
 Form MO integral derivatives with frozen-active canonical formalism.
 MOERI=1 MOERIx=1 NAtoms=    16 NAtomX=    16.
 Discarding MO integrals.
 MO basis two electron integral derivatives will not be stored on disk.
 IAlg= 3 DoFC=T DoPWx=T Debug=F.
 Reordered first order wavefunction length =     12152450
 In DefCFB: NBatch=  1 ICI= 29 ICA= 85 LFMax= 85
            Large arrays: LIAPS=   128140560 LIARS=    76715730 words.
 In StABat: MaxSiz= 39 MinSiz= 37 NAtomB=  3
 DoIAMN: NPSUse= 28.
 Leave Link  811 at Wed May 11 21:28:17 2022, MaxMem= 67108864000 cpu:             603.1 elap:              21.6
 (Enter /cm/shared/apps/gaussian/intel/EM64T/SSE4_2-enabled/binary//g16/l804.exe)
 Closed-shell transformation, MDV= 67108864000 ITran=4 ISComp=1.
 Semi-Direct transformation.
 ModeAB=           4 MOrb=            29 LenV=   67108412716
 LASXX=     17409106 LTotXX=    17409106 LenRXX=    35346331
 LTotAB=    17937225 MaxLAS=    19928568 LenRXY=           0
 NonZer=    52755437 LenScr=    79902720 LnRSAI=    19928568
 LnScr1=    30658560 LExtra=           0 Total=    165836179
 MaxDsk=          -1 SrtSym=           T ITran=            4
 DoSDTr:  NPSUse= 28
 JobTyp=0 Pass  1:  I=   1 to  29.
 (rs|ai) integrals will be sorted in core.
 Complete sort for first half transformation.
 First half transformation complete.
 Begin second half transformation for I=  10.
 Begin second half transformation for I=  20.
 Complete sort for second half transformation.
 Second half transformation complete.
 SymMOI:  orbitals are not symmetric.
 Spin components of T(2) and E(2):
     alpha-alpha T2 =       0.3160060607D-01 E2=     -0.1010119715D+00
     alpha-beta  T2 =       0.1831984934D+00 E2=     -0.5926609971D+00
     beta-beta   T2 =       0.3160060607D-01 E2=     -0.1010119715D+00
 ANorm=    0.1578860162D+01
 E2 =    -0.7946849400D+00 EUMP2 =    -0.23729654448798D+03
 Leave Link  804 at Wed May 11 21:28:20 2022, MaxMem= 67108864000 cpu:              77.7 elap:               2.8
 (Enter /cm/shared/apps/gaussian/intel/EM64T/SSE4_2-enabled/binary//g16/l1002.exe)
 Minotr:  Closed shell wavefunction.
          Computing MP2/KS-MP2 derivatives.
          Using Z-Vector for PSCF gradient.
          Skipping F1 and S1 gradient terms here.
          IDoAtm=1111111111111111
          Using MO integrals in the linear equations.
          Forming densities via direct SCF.
          Differentiating once with respect to electric field.
                with respect to dipole field.
          Differentiating once with respect to nuclear coordinates.
          Requested convergence is 1.0D-10 RMS, and 1.0D-09 maximum.
          NewPWx=F KeepS1=T KeepF1=T KeepIn=T MapXYZ=F SortEE=F KeepMc=T.
          MDV=   67108864000 using IRadAn=       5.
          Solving linear equations separately, MaxMat=       0.
          There are     1 degrees of freedom in the 1st order CPHF.  IDoFFX=0 NUNeed=     1.
 FoFJK:  IHMeth= 1 ICntrl=       0 DoSepK=F KAlg= 0 I1Cent=           0 FoldK=F
 IRaf=         0 NMat=       1 IRICut=       1 DoRegI=T DoRafI=F ISym2E= 0 IDoP0=0 IntGTp=1.
 FoFCou: FMM=F IPFlag=           0 FMFlag=      100000 FMFlg1=           0
         NFxFlg=           0 DoJE=F BraDBF=F KetDBF=F FulRan=T
         wScrn=  0.000000 ICntrl=         0 IOpCl=  0 I1Cent=           0 NGrid=           0
         NMat0=    1 NMatS0=      1 NMatT0=    0 NMatD0=    1 NMtDS0=    0 NMtDT0=    0
 Symmetry not used in FoFCou.
 LinEq1:  Iter=  0 NonCon=     1 RMS=6.92D-03 Max=1.29D-01 NDo=     1
 LinEq1:  Iter=  1 NonCon=     1 RMS=1.54D-03 Max=1.00D-02 NDo=     1
 LinEq1:  Iter=  2 NonCon=     1 RMS=5.07D-04 Max=9.13D-03 NDo=     1
 LinEq1:  Iter=  3 NonCon=     1 RMS=2.02D-04 Max=2.35D-03 NDo=     1
 LinEq1:  Iter=  4 NonCon=     1 RMS=5.82D-05 Max=9.77D-04 NDo=     1
 LinEq1:  Iter=  5 NonCon=     1 RMS=1.57D-05 Max=1.84D-04 NDo=     1
 LinEq1:  Iter=  6 NonCon=     1 RMS=6.32D-06 Max=6.24D-05 NDo=     1
 LinEq1:  Iter=  7 NonCon=     1 RMS=1.40D-06 Max=1.47D-05 NDo=     1
 LinEq1:  Iter=  8 NonCon=     1 RMS=5.98D-07 Max=7.12D-06 NDo=     1
 LinEq1:  Iter=  9 NonCon=     1 RMS=1.30D-07 Max=1.01D-06 NDo=     1
 LinEq1:  Iter= 10 NonCon=     1 RMS=2.57D-08 Max=2.55D-07 NDo=     1
 LinEq1:  Iter= 11 NonCon=     1 RMS=1.01D-08 Max=9.16D-08 NDo=     1
 LinEq1:  Iter= 12 NonCon=     1 RMS=2.37D-09 Max=3.16D-08 NDo=     1
 LinEq1:  Iter= 13 NonCon=     1 RMS=4.02D-10 Max=3.61D-09 NDo=     1
 LinEq1:  Iter= 14 NonCon=     0 RMS=5.55D-11 Max=5.54D-10 NDo=     1
 Linear equations converged to 1.000D-10 1.000D-09 after    14 iterations.
 End of Minotr F.D. properties file   721 does not exist.
 End of Minotr F.D. properties file   722 does not exist.
 End of Minotr F.D. properties file   788 does not exist.
 Leave Link 1002 at Wed May 11 21:28:21 2022, MaxMem= 67108864000 cpu:              45.0 elap:               1.6
 (Enter /cm/shared/apps/gaussian/intel/EM64T/SSE4_2-enabled/binary//g16/l1102.exe)
 Use density number 2.
 Symmetrizing basis deriv contribution to polar:
 IMax=3 JMax=2 DiffMx= 0.00D+00
 Leave Link 1102 at Wed May 11 21:28:21 2022, MaxMem= 67108864000 cpu:               1.4 elap:               0.1
 (Enter /cm/shared/apps/gaussian/intel/EM64T/SSE4_2-enabled/binary//g16/l1110.exe)
 Forming Gx(P) for generalized density number  2 NAtomX=    16.
 Integral derivatives from FoFJK, PRISM(SPDF).
 Do as many integral derivatives as possible in FoFJK.
 G2DrvN: MDV=   67108862744.
 G2DrvN: will do    17 centers at a time, making    1 passes.
 Calling FoFCou, ICntrl=  3107 FMM=F I1Cent=   0 AccDes= 0.00D+00.
 FoFJK:  IHMeth= 1 ICntrl=    3107 DoSepK=F KAlg= 0 I1Cent=           0 FoldK=F
 IRaf=         0 NMat=       1 IRICut=       1 DoRegI=T DoRafI=F ISym2E= 0 IDoP0=0 IntGTp=1.
 FoFCou: FMM=F IPFlag=           0 FMFlag=      100000 FMFlg1=           0
         NFxFlg=           0 DoJE=F BraDBF=F KetDBF=F FulRan=T
         wScrn=  0.000000 ICntrl=      3107 IOpCl=  0 I1Cent=           0 NGrid=           0
         NMat0=    1 NMatS0=      1 NMatT0=    0 NMatD0=    1 NMtDS0=    0 NMtDT0=    0
 Symmetry not used in FoFCou.
 End of G2Drv F.D. properties file   721 does not exist.
 End of G2Drv F.D. properties file   722 does not exist.
 End of G2Drv F.D. properties file   788 does not exist.
 Leave Link 1110 at Wed May 11 21:28:22 2022, MaxMem= 67108864000 cpu:               9.4 elap:               0.4
 (Enter /cm/shared/apps/gaussian/intel/EM64T/SSE4_2-enabled/binary//g16/l1112.exe)
 MP22nd: MDV=   67108864000
 This link is doing NAtomX=    16 total of    51 degrees of freedom.
 Using ON3 I/O method in MakUI.
 Using Ix for Sx.
 Using OV2 memory method for fx*t*t/D, MaxI=    29 DoOO2=F NP=  28.
 R2 and R3 integrals will be kept in memory, NReq=    43794580.
 FoFCou: FMM=F IPFlag=           0 FMFlag=           0 FMFlg1=           0
         NFxFlg=           0 DoJE=F BraDBF=F KetDBF=F FulRan=T
         wScrn=  0.000000 ICntrl=       600 IOpCl=  0 I1Cent=           0 NGrid=           0
         NMat0=    1 NMatS0=      1 NMatT0=    0 NMatD0=    1 NMtDS0=    0 NMtDT0=    0
 Symmetry not used in FoFCou.
 DD1Dir will call FoFMem   1 times, MxPair=       870
 NAB=   435 NAA=     0 NBB=     0.
 Symmetry is being used.
 FoFJK:  IHMeth= 1 ICntrl=       0 DoSepK=F KAlg= 0 I1Cent=           0 FoldK=F
 IRaf=         0 NMat=      51 IRICut=     127 DoRegI=T DoRafI=T ISym2E= 2 IDoP0=0 IntGTp=1.
 Discarding MO integrals.
 Leave Link 1112 at Wed May 11 21:28:38 2022, MaxMem= 67108864000 cpu:             443.2 elap:              15.9
 (Enter /cm/shared/apps/gaussian/intel/EM64T/SSE4_2-enabled/binary//g16/l601.exe)
 Copying SCF densities to generalized density rwf, IOpCl= 0 IROHF=0.

 **********************************************************************

            Population analysis using the SCF density.

 **********************************************************************

 Orbital symmetries:
       Occupied  (A) (A) (A) (A) (A) (A) (A) (A) (A) (A) (A) (A)
                 (A) (A) (A) (A) (A) (A) (A) (A) (A) (A) (A) (A)
                 (A) (A) (A) (A) (A)
       Virtual   (A) (A) (A) (A) (A) (A) (A) (A) (A) (A) (A) (A)
                 (A) (A) (A) (A) (A) (A) (A) (A) (A) (A) (A) (A)
                 (A) (A) (A) (A) (A) (A) (A) (A) (A) (A) (A) (A)
                 (A) (A) (A) (A) (A) (A) (A) (A) (A) (A) (A) (A)
                 (A) (A) (A) (A) (A) (A) (A) (A) (A) (A) (A) (A)
                 (A) (A) (A) (A) (A) (A) (A) (A) (A) (A) (A) (A)
                 (A) (A) (A) (A) (A) (A) (A) (A) (A) (A) (A) (A)
                 (A)
 The electronic state is 1-A.
 Alpha  occ. eigenvalues --   -5.42371  -3.41898  -3.41328  -3.41315  -1.71278
 Alpha  occ. eigenvalues --   -1.70275  -1.67546  -1.66578  -1.59981  -1.07934
 Alpha  occ. eigenvalues --   -1.07225  -1.05728  -1.04639  -1.03580  -1.02749
 Alpha  occ. eigenvalues --   -1.01266  -0.99045  -0.98023  -0.98021  -0.92253
 Alpha  occ. eigenvalues --   -0.90059  -0.88510  -0.86631  -0.85180  -0.82976
 Alpha  occ. eigenvalues --   -0.82490  -0.82200  -0.77935  -0.77356
 Alpha virt. eigenvalues --   -0.23812  -0.18567  -0.18334  -0.15112  -0.13914
 Alpha virt. eigenvalues --   -0.10077  -0.09437  -0.08080  -0.06873  -0.06129
 Alpha virt. eigenvalues --   -0.05387  -0.04470  -0.04049  -0.03245  -0.01727
 Alpha virt. eigenvalues --   -0.01429  -0.00336   0.00290   0.00731   0.01610
 Alpha virt. eigenvalues --    0.01996   0.02452   0.03619   0.05752   0.07506
 Alpha virt. eigenvalues --    0.08471   0.10210   0.10999   0.12146   0.12683
 Alpha virt. eigenvalues --    0.13505   0.14281   0.16407   0.17000   0.20630
 Alpha virt. eigenvalues --    0.21660   0.23516   0.26279   0.27749   0.35988
 Alpha virt. eigenvalues --    0.62404   0.62578   0.68228   0.69101   0.91157
 Alpha virt. eigenvalues --    0.96477   1.00993   1.05577   1.06419   1.06990
 Alpha virt. eigenvalues --    1.08108   1.08900   1.09954   1.10847   1.12326
 Alpha virt. eigenvalues --    1.14307   1.16184   1.16853   1.17909   1.18856
 Alpha virt. eigenvalues --    1.20048   1.20274   1.20906   1.22528   1.23815
 Alpha virt. eigenvalues --    1.26321   1.29232   1.31083   1.31524   1.34351
 Alpha virt. eigenvalues --    1.36560   1.38995   1.50598   1.57098   2.19700
 Alpha virt. eigenvalues --    2.31779   2.64803   2.92031   3.00694   4.24044
 Alpha virt. eigenvalues --   15.48637  41.58864  41.59315  41.72564  81.47064
          Condensed to atoms (all electrons):
               1          2          3          4          5          6
     1  Hg  18.415679   0.000025   0.000213   0.000013  -0.005662   0.114562
     2  H    0.000025   0.235329   0.259279  -0.011941  -0.000000   0.000000
     3  O    0.000213   0.259279   6.334547   0.259998  -0.000000   0.000000
     4  H    0.000013  -0.011941   0.259998   0.231585   0.000000  -0.000000
     5  H   -0.005662  -0.000000  -0.000000   0.000000   0.230555   0.244225
     6  O    0.114562   0.000000   0.000000  -0.000000   0.244225   6.606245
     7  H   -0.002141   0.000000  -0.000000   0.000000  -0.005654   0.147084
     8  H    0.000042  -0.001908   0.096022  -0.001803  -0.000000   0.000000
     9  O   -0.000776   0.001232  -0.063145   0.002499   0.000000  -0.000003
    10  H    0.000166  -0.000011   0.000705  -0.000021  -0.000000   0.000000
    11  H    0.000502   0.000000   0.000000   0.000000  -0.000031   0.002026
    12  O    0.000205   0.000000  -0.000000   0.000000   0.001177  -0.057812
    13  H    0.000320  -0.000000  -0.000000  -0.000000  -0.000024   0.001627
    14  H    0.001097  -0.000009   0.000782  -0.000007   0.000000   0.000009
    15  O    0.176060   0.000006  -0.000920   0.000025  -0.000019  -0.001282
    16  H   -0.018445   0.000000   0.000080   0.000000  -0.000000  -0.000135
               7          8          9         10         11         12
     1  Hg  -0.002141   0.000042  -0.000776   0.000166   0.000502   0.000205
     2  H    0.000000  -0.001908   0.001232  -0.000011   0.000000   0.000000
     3  O   -0.000000   0.096022  -0.063145   0.000705   0.000000  -0.000000
     4  H    0.000000  -0.001803   0.002499  -0.000021   0.000000   0.000000
     5  H   -0.005654  -0.000000   0.000000  -0.000000  -0.000031   0.001177
     6  O    0.147084   0.000000  -0.000003   0.000000   0.002026  -0.057812
     7  H    0.136363   0.000000   0.000000  -0.000000  -0.002329   0.090123
     8  H    0.000000   0.140220   0.150505  -0.004480   0.000000  -0.000000
     9  O    0.000000   0.150505   6.402683   0.251578  -0.000000   0.000000
    10  H   -0.000000  -0.004480   0.251578   0.235283   0.000000  -0.000000
    11  H   -0.002329   0.000000  -0.000000   0.000000   0.228368   0.257511
    12  O    0.090123  -0.000000   0.000000  -0.000000   0.257511   6.351963
    13  H   -0.002326   0.000000   0.000000  -0.000000  -0.012471   0.256315
    14  H    0.000000  -0.000503   0.186409  -0.007560   0.000000  -0.000000
    15  O   -0.000027   0.000016  -0.004400   0.001166   0.000002   0.000029
    16  H    0.000000   0.000007   0.001313   0.000009  -0.000000   0.000006
              13         14         15         16
     1  Hg   0.000320   0.001097   0.176060  -0.018445
     2  H   -0.000000  -0.000009   0.000006   0.000000
     3  O   -0.000000   0.000782  -0.000920   0.000080
     4  H   -0.000000  -0.000007   0.000025   0.000000
     5  H   -0.000024   0.000000  -0.000019  -0.000000
     6  O    0.001627   0.000009  -0.001282  -0.000135
     7  H   -0.002326   0.000000  -0.000027   0.000000
     8  H    0.000000  -0.000503   0.000016   0.000007
     9  O    0.000000   0.186409  -0.004400   0.001313
    10  H   -0.000000  -0.007560   0.001166   0.000009
    11  H   -0.012471   0.000000   0.000002  -0.000000
    12  O    0.256315  -0.000000   0.000029   0.000006
    13  H    0.233236  -0.000000  -0.000000   0.000000
    14  H   -0.000000   0.145477   0.036763  -0.001218
    15  O   -0.000000   0.036763   6.634204   0.245193
    16  H    0.000000  -0.001218   0.245193   0.278533
 Mulliken charges:
               1
     1  Hg   1.318140
     2  H    0.517999
     3  O   -0.887562
     4  H    0.519652
     5  H    0.535431
     6  O   -1.056548
     7  H    0.638907
     8  H    0.621882
     9  O   -0.927895
    10  H    0.523166
    11  H    0.526421
    12  O   -0.899517
    13  H    0.523322
    14  H    0.638759
    15  O   -1.086815
    16  H    0.494658
 Sum of Mulliken charges =   2.00000
 Mulliken charges with hydrogens summed into heavy atoms:
               1
     1  Hg   1.318140
     3  O    0.150089
     6  O    0.117791
     9  O    0.855912
    12  O    0.150226
    15  O   -0.592157
         Mulliken charges condensed to fragments:
      1      1.318140
      2      0.681860
 APT charges:
               1
     1  Hg   1.237264
     2  H    0.409583
     3  O   -0.828015
     4  H    0.413499
     5  H    0.349978
     6  O   -0.972820
     7  H    0.906280
     8  H    0.912967
     9  O   -0.994834
    10  H    0.407660
    11  H    0.409302
    12  O   -0.829929
    13  H    0.402388
    14  H    0.730708
    15  O   -0.828801
    16  H    0.274770
 Sum of APT charges =   2.00000
 APT charges with hydrogens summed into heavy atoms:
               1
     1  Hg   1.237264
     3  O   -0.004933
     6  O    0.283438
     9  O    1.056501
    12  O   -0.018239
    15  O   -0.554032
         APT charges condensed to fragments:
      1      1.237264
      2      0.762736
 Electronic spatial extent (au):  <R**2>=           2224.7249
 Charge=              2.0000 electrons
 Dipole moment (field-independent basis, Debye):
    X=              4.4214    Y=              1.3026    Z=              0.0152  Tot=              4.6093
 Quadrupole moment (field-independent basis, Debye-Ang):
   XX=            117.1836   YY=            -34.4673   ZZ=            -44.4839
   XY=             -4.2645   XZ=             -0.0514   YZ=             -2.5219
 Traceless Quadrupole moment (field-independent basis, Debye-Ang):
   XX=            104.4394   YY=            -47.2114   ZZ=            -57.2280
   XY=             -4.2645   XZ=             -0.0514   YZ=             -2.5219
 Octapole moment (field-independent basis, Debye-Ang**2):
  XXX=            315.1978  YYY=             -8.7304  ZZZ=             14.7249  XYY=            -16.5141
  XXY=            146.8295  XXZ=            -14.7168  XZZ=            -10.2821  YZZ=             -8.1173
  YYZ=            -14.2269  XYZ=             -2.1566
 Hexadecapole moment (field-independent basis, Debye-Ang**3):
 XXXX=           2418.8209 YYYY=           -188.9786 ZZZZ=            -84.2316 XXXY=            192.1899
 XXXZ=            -33.5411 YYYX=            -16.6506 YYYZ=            -26.0399 ZZZX=              7.7030
 ZZZY=             -6.4213 XXYY=            -52.1277 XXZZ=           -341.8236 YYZZ=            -39.9829
 XXYZ=            -43.6789 YYXZ=             -9.5604 ZZXY=             -4.0610
 N-N= 2.452211586106D+02 E-N=-9.963214538380D+02  KE= 1.184028417343D+02
  Exact polarizability:  74.180  -2.381  43.916   3.293  -0.290  39.969
 Approx polarizability:  39.652  -0.525  30.441   0.984  -0.797  29.182
 No NMR shielding tensors so no spin-rotation constants.
 Leave Link  601 at Wed May 11 21:28:38 2022, MaxMem= 67108864000 cpu:               3.5 elap:               0.2
 (Enter /cm/shared/apps/gaussian/intel/EM64T/SSE4_2-enabled/binary//g16/l701.exe)
 ... and contract with generalized density number  2.
 Compute integral second derivatives.
   1 Symmetry operations used in ECPInt.
 ECPInt:  NShTT=    1770 NPrTT=    5742 LenC2=    1672 LenP2D=    4191.
 LDataN:  DoStor=T MaxTD1= 9 Len=  602
 Leave Link  701 at Wed May 11 21:28:39 2022, MaxMem= 67108864000 cpu:              33.4 elap:               1.2
 (Enter /cm/shared/apps/gaussian/intel/EM64T/SSE4_2-enabled/binary//g16/l702.exe)
 L702 exits ... SP integral derivatives will be done elsewhere.
 Leave Link  702 at Wed May 11 21:28:39 2022, MaxMem= 67108864000 cpu:               0.5 elap:               0.0
 (Enter /cm/shared/apps/gaussian/intel/EM64T/SSE4_2-enabled/binary//g16/l703.exe)
 Integral derivatives from FoFJK, PRISM(SPDF).
 Compute integral second derivatives, UseDBF=F ICtDFT=           0.
 Calling FoFJK, ICntrl=  10100127 FMM=F ISym2X=0 I1Cent= 0 IOpClX= 0 NMat=1 NMatS=1 NMatT=0.
 FoFJK:  IHMeth= 1 ICntrl=10100127 DoSepK=F KAlg= 0 I1Cent=           0 FoldK=F
 IRaf=         0 NMat=       1 IRICut=       1 DoRegI=T DoRafI=F ISym2E= 0 IDoP0=0 IntGTp=1.
 FoFCou: FMM=F IPFlag=           0 FMFlag=      100000 FMFlg1=         800
         NFxFlg=           0 DoJE=F BraDBF=F KetDBF=F FulRan=T
         wScrn=  0.000000 ICntrl=  10100127 IOpCl=  0 I1Cent=           0 NGrid=           0
         NMat0=    1 NMatS0=      1 NMatT0=    0 NMatD0=    1 NMtDS0=    0 NMtDT0=    0
 Symmetry not used in FoFCou.
 Leave Link  703 at Wed May 11 21:28:40 2022, MaxMem= 67108864000 cpu:              14.8 elap:               0.6
 (Enter /cm/shared/apps/gaussian/intel/EM64T/SSE4_2-enabled/binary//g16/l716.exe)
 Dipole        = 1.87518443D+00 5.89387908D-01-2.18948523D-02
 Polarizability= 7.41798074D+01-2.38111747D+00 4.39161183D+01
                 3.29331275D+00-2.90385156D-01 3.99685694D+01
 Full mass-weighted force constant matrix:
 Low frequencies --- -308.0664 -297.3433 -193.4343 -106.4060  -90.6792  -44.2464
 Low frequencies ---  -27.1971  -10.1073   -0.0002
 ******    5 imaginary frequencies (negative Signs) ****** 
 Diagonal vibrational polarizability:
      516.0046316     502.6990383     273.3303471
 Harmonic frequencies (cm**-1), IR intensities (KM/Mole), Raman scattering
 activities (A**4/AMU), depolarization ratios for plane and unpolarized
 incident light, reduced masses (AMU), force constants (mDyne/A),
 and normal coordinates:
                      1                      2                      3
                      A                      A                      A
 Frequencies --   -306.9458              -295.2999              -181.5629
 Red. masses --      1.0317                 1.0274                 1.3079
 Frc consts  --      0.0573                 0.0528                 0.0254
 IR Inten    --     39.0191                79.9549                50.3088
  Atom  AN      X      Y      Z        X      Y      Z        X      Y      Z
     1  80    -0.00  -0.00  -0.00     0.00  -0.00  -0.00    -0.00  -0.01  -0.01
     2   1    -0.34   0.33   0.51    -0.07   0.06   0.12    -0.04  -0.03   0.07
     3   8    -0.01   0.02  -0.02    -0.00   0.00   0.01    -0.01  -0.03   0.04
     4   1     0.41  -0.49  -0.23     0.08  -0.09  -0.02     0.04  -0.05   0.04
     5   1     0.00   0.01  -0.02    -0.01  -0.01   0.03    -0.02  -0.01   0.02
     6   8     0.00   0.01  -0.00    -0.01  -0.00   0.02    -0.01  -0.02   0.00
     7   1     0.00   0.01  -0.00    -0.01  -0.02   0.05     0.01  -0.01   0.01
     8   1     0.00  -0.02   0.04     0.00   0.00   0.01    -0.02  -0.04  -0.00
     9   8     0.01  -0.00   0.01     0.00   0.01   0.00     0.00  -0.03  -0.01
    10   1     0.00  -0.01   0.03     0.00   0.01  -0.01     0.01  -0.04   0.04
    11   1     0.08   0.10   0.06    -0.44  -0.48  -0.18    -0.02  -0.01   0.07
    12   8    -0.00  -0.00   0.02     0.01   0.02  -0.02     0.02  -0.01   0.05
    13   1    -0.07  -0.07  -0.08     0.37   0.34   0.49     0.05  -0.01   0.09
    14   1    -0.01   0.01  -0.02    -0.00   0.00  -0.00    -0.01  -0.03  -0.02
    15   8     0.00  -0.01  -0.00    -0.00  -0.01  -0.00     0.01   0.11  -0.01
    16   1    -0.00  -0.06  -0.02    -0.00  -0.06  -0.02     0.03   0.95   0.20
                      4                      5                      6
                      A                      A                      A
 Frequencies --   -104.4344               -68.2831                28.0326
 Red. masses --      2.8109                 3.5194                 5.3119
 Frc consts  --      0.0181                 0.0097                 0.0025
 IR Inten    --      1.3481                15.3509                10.1235
  Atom  AN      X      Y      Z        X      Y      Z        X      Y      Z
     1  80    -0.00  -0.01   0.00    -0.00  -0.01  -0.02    -0.00  -0.05   0.02
     2   1    -0.10  -0.17   0.22     0.05   0.37  -0.10    -0.17   0.10  -0.00
     3   8     0.02  -0.04   0.12    -0.10   0.18  -0.00    -0.13   0.11  -0.04
     4   1     0.20  -0.01   0.24    -0.33   0.19  -0.11    -0.08   0.10  -0.02
     5   1    -0.12  -0.16   0.52    -0.13  -0.02   0.36     0.02   0.13  -0.29
     6   8    -0.07  -0.11   0.17    -0.06  -0.01   0.14     0.07   0.07  -0.14
     7   1    -0.03  -0.02   0.07     0.00   0.06   0.11     0.14   0.08  -0.10
     8   1    -0.00   0.06  -0.06     0.01  -0.03   0.11    -0.14   0.13  -0.06
     9   8    -0.01   0.10  -0.13     0.12  -0.13   0.14    -0.15   0.15  -0.07
    10   1    -0.02   0.13  -0.27     0.23  -0.15   0.40    -0.15   0.19  -0.26
    11   1     0.25   0.07  -0.23     0.19   0.16   0.01     0.30   0.24  -0.03
    12   8     0.02   0.08  -0.11     0.07   0.14   0.06     0.27   0.22  -0.03
    13   1    -0.13   0.22  -0.25     0.00   0.23  -0.00     0.28   0.33   0.01
    14   1     0.00   0.06  -0.12     0.04  -0.10   0.01    -0.08   0.05   0.05
    15   8     0.03   0.02  -0.10     0.01  -0.05  -0.08    -0.03  -0.00   0.11
    16   1     0.08  -0.01  -0.10     0.01  -0.02  -0.07    -0.05   0.14   0.15
                      7                      8                      9
                      A                      A                      A
 Frequencies --     45.9975                98.5186               117.7794
 Red. masses --      5.4460                 5.1284                 5.3602
 Frc consts  --      0.0068                 0.0293                 0.0438
 IR Inten    --     16.5278                11.4456                28.3267
  Atom  AN      X      Y      Z        X      Y      Z        X      Y      Z
     1  80    -0.04  -0.02  -0.02    -0.02  -0.04   0.04    -0.04   0.03   0.03
     2   1     0.42  -0.05  -0.18     0.10   0.08   0.02    -0.04   0.03   0.09
     3   8     0.37  -0.01  -0.10     0.12   0.09   0.01    -0.02   0.01   0.06
     4   1     0.33  -0.10  -0.19     0.12   0.11   0.03    -0.02   0.09   0.13
     5   1    -0.08  -0.08   0.08     0.02   0.34  -0.42     0.10  -0.23  -0.27
     6   8    -0.06  -0.08   0.00     0.04   0.25  -0.07     0.02  -0.20  -0.20
     7   1     0.01  -0.06   0.01    -0.01   0.22  -0.03     0.06  -0.27  -0.18
     8   1     0.22   0.15   0.12     0.16   0.07  -0.04     0.11  -0.03  -0.05
     9   8     0.08   0.19   0.18     0.21   0.02  -0.09     0.17  -0.10  -0.11
    10   1    -0.03   0.14   0.23     0.26   0.02   0.01     0.21  -0.11   0.03
    11   1     0.14   0.09   0.09    -0.22   0.02  -0.12     0.21  -0.01   0.13
    12   8     0.11   0.05   0.07    -0.15   0.09  -0.10     0.25  -0.10   0.04
    13   1     0.10   0.10   0.08    -0.12   0.04  -0.08     0.31  -0.05   0.12
    14   1     0.07   0.28   0.15     0.14   0.02  -0.22     0.11  -0.05  -0.23
    15   8    -0.05   0.10   0.05     0.05   0.01  -0.19     0.02   0.04  -0.16
    16   1    -0.10  -0.10   0.01     0.18   0.30  -0.12     0.12  -0.29  -0.25
                     10                     11                     12
                      A                      A                      A
 Frequencies --    206.6154               245.0563               311.0134
 Red. masses --      3.3875                 3.6135                 1.1656
 Frc consts  --      0.0852                 0.1279                 0.0664
 IR Inten    --     57.7137               143.1343               120.2355
  Atom  AN      X      Y      Z        X      Y      Z        X      Y      Z
     1  80     0.01  -0.02  -0.01    -0.01  -0.00  -0.01     0.00  -0.00   0.00
     2   1    -0.08  -0.07   0.04    -0.03   0.13   0.10    -0.01  -0.01  -0.00
     3   8    -0.06  -0.05   0.03     0.00   0.03   0.01    -0.01  -0.00   0.00
     4   1    -0.05   0.01   0.08    -0.03   0.11   0.06    -0.00  -0.01   0.00
     5   1    -0.00   0.10  -0.15    -0.09  -0.04   0.15    -0.15  -0.09   0.60
     6   8     0.01   0.05   0.03    -0.05  -0.02  -0.01    -0.00  -0.01  -0.07
     7   1    -0.01   0.05   0.08     0.02  -0.02  -0.05     0.11   0.16  -0.30
     8   1     0.00  -0.05  -0.04     0.26   0.00  -0.04    -0.01   0.01   0.00
     9   8    -0.02  -0.05  -0.01     0.21  -0.06  -0.16    -0.01   0.01   0.01
    10   1    -0.09  -0.14   0.27     0.21   0.02  -0.54    -0.02   0.00   0.03
    11   1     0.01   0.01   0.01    -0.08   0.06   0.05    -0.38   0.22   0.29
    12   8    -0.02   0.02   0.03    -0.05   0.05   0.02    -0.02   0.05  -0.01
    13   1    -0.03   0.04   0.02    -0.04   0.00   0.02     0.19  -0.38   0.11
    14   1    -0.06   0.18  -0.07     0.36  -0.22   0.03    -0.02   0.03  -0.01
    15   8     0.03   0.37   0.01    -0.06   0.04   0.29     0.01   0.01  -0.02
    16   1     0.06  -0.75  -0.27    -0.25  -0.13   0.26     0.03  -0.05  -0.04
                     13                     14                     15
                      A                      A                      A
 Frequencies --    333.6854               379.4699               460.0967
 Red. masses --      1.1467                 3.5784                 1.3913
 Frc consts  --      0.0752                 0.3036                 0.1735
 IR Inten    --     76.4224               223.0166                79.9241
  Atom  AN      X      Y      Z        X      Y      Z        X      Y      Z
     1  80    -0.00   0.00  -0.00     0.03   0.00   0.01     0.00  -0.00   0.00
     2   1    -0.22  -0.39   0.08    -0.04  -0.05  -0.01     0.03   0.05  -0.02
     3   8     0.02   0.05  -0.02    -0.02  -0.02  -0.01    -0.01  -0.01  -0.00
     4   1     0.39   0.21   0.30    -0.01  -0.02  -0.00    -0.06  -0.04  -0.06
     5   1    -0.00   0.00   0.01    -0.04  -0.15  -0.49    -0.07  -0.09   0.65
     6   8    -0.00   0.00   0.00    -0.12  -0.18  -0.16     0.00   0.06  -0.13
     7   1    -0.00   0.01   0.00    -0.01  -0.46  -0.11    -0.02   0.00   0.20
     8   1    -0.12   0.16  -0.29     0.01   0.05   0.02     0.03  -0.01   0.02
     9   8    -0.01  -0.03  -0.04    -0.02   0.02   0.02     0.01   0.01  -0.02
    10   1     0.13  -0.10   0.57    -0.01   0.00   0.12    -0.02  -0.03   0.15
    11   1    -0.00   0.01   0.01    -0.06   0.14  -0.03     0.31  -0.29  -0.30
    12   8     0.00   0.00   0.01    -0.19   0.20   0.09    -0.01  -0.04   0.05
    13   1     0.01  -0.01   0.01    -0.30   0.46   0.03    -0.24   0.34  -0.10
    14   1    -0.04   0.10  -0.07    -0.03   0.04  -0.01    -0.01   0.08  -0.05
    15   8    -0.01  -0.03   0.04     0.03  -0.02  -0.03     0.00   0.00   0.01
    16   1    -0.03  -0.01   0.05     0.04   0.00  -0.02     0.02   0.01   0.01
                     16                     17                     18
                      A                      A                      A
 Frequencies --    464.4497               481.6131               579.5160
 Red. masses --      1.5339                 2.5483                 1.0745
 Frc consts  --      0.1950                 0.3483                 0.2126
 IR Inten    --    190.7988               271.5033               134.0789
  Atom  AN      X      Y      Z        X      Y      Z        X      Y      Z
     1  80     0.00   0.00  -0.00     0.00   0.00   0.00     0.00  -0.00  -0.00
     2   1     0.11   0.21  -0.06     0.39   0.48  -0.02     0.16  -0.19  -0.22
     3   8    -0.06  -0.09   0.02     0.16   0.13   0.11     0.01   0.02   0.04
     4   1    -0.33  -0.19  -0.21    -0.09  -0.03  -0.16     0.03  -0.34  -0.26
     5   1     0.02   0.02  -0.10    -0.00  -0.02  -0.06     0.00  -0.00   0.00
     6   8     0.01  -0.01   0.04    -0.01  -0.02  -0.00     0.00  -0.00  -0.00
     7   1     0.02  -0.00  -0.04    -0.03  -0.01  -0.02     0.00  -0.00  -0.00
     8   1     0.18   0.06   0.16    -0.14  -0.44  -0.06    -0.29   0.20   0.22
     9   8     0.06   0.09  -0.08    -0.13  -0.11  -0.13    -0.03  -0.00  -0.03
    10   1    -0.02  -0.09   0.66    -0.31  -0.25   0.19     0.53   0.17   0.10
    11   1    -0.06   0.04   0.04    -0.02   0.04   0.02    -0.00   0.00   0.00
    12   8     0.01   0.00  -0.02    -0.01   0.01  -0.01    -0.00   0.00  -0.00
    13   1     0.05  -0.08   0.00     0.01   0.01   0.01    -0.00   0.00   0.00
    14   1    -0.02   0.35  -0.22    -0.14   0.17  -0.06    -0.11  -0.40  -0.17
    15   8    -0.04  -0.04   0.03     0.01  -0.01   0.04    -0.01   0.02   0.01
    16   1    -0.01   0.07   0.06     0.03  -0.03   0.03     0.01  -0.05  -0.01
                     19                     20                     21
                      A                      A                      A
 Frequencies --    613.5136               672.6203               694.4652
 Red. masses --      4.6967                 2.4016                 1.9550
 Frc consts  --      1.0416                 0.6402                 0.5555
 IR Inten    --    222.3466               344.1864                99.2026
  Atom  AN      X      Y      Z        X      Y      Z        X      Y      Z
     1  80    -0.00  -0.00  -0.00    -0.03   0.00  -0.01    -0.02   0.00  -0.01
     2   1    -0.00   0.03   0.04     0.01  -0.01  -0.02     0.01  -0.04  -0.03
     3   8     0.02   0.02   0.00    -0.01  -0.01   0.00    -0.01  -0.00   0.00
     4   1     0.03   0.07   0.04    -0.01  -0.04  -0.03     0.01  -0.05  -0.03
     5   1     0.23  -0.06   0.15     0.01   0.01  -0.05     0.22  -0.09   0.17
     6   8     0.34  -0.10   0.05     0.08  -0.04   0.01     0.18  -0.03   0.03
     7   1     0.47  -0.21  -0.00     0.20   0.02   0.06     0.03  -0.13  -0.08
     8   1     0.04   0.01   0.01    -0.04  -0.02  -0.02    -0.01  -0.02  -0.02
     9   8    -0.01  -0.03  -0.00    -0.00   0.01   0.00     0.01   0.01   0.00
    10   1    -0.04  -0.02  -0.10     0.02   0.01   0.06    -0.02  -0.00   0.02
    11   1    -0.18  -0.32  -0.22    -0.24  -0.52  -0.30     0.19   0.50   0.27
    12   8    -0.06   0.12   0.07     0.02   0.09   0.06    -0.08  -0.03  -0.02
    13   1    -0.27  -0.14  -0.23    -0.20  -0.49  -0.35     0.10   0.57   0.33
    14   1    -0.02  -0.02  -0.07     0.02   0.01   0.08     0.02   0.03   0.04
    15   8    -0.30   0.02  -0.08     0.24  -0.02   0.06     0.12  -0.01   0.03
    16   1    -0.19   0.00  -0.09     0.16  -0.02   0.07     0.09  -0.00   0.04
                     22                     23                     24
                      A                      A                      A
 Frequencies --    708.4846               971.3653               981.4344
 Red. masses --      1.1916                 1.0890                 1.0447
 Frc consts  --      0.3524                 0.6054                 0.5929
 IR Inten    --    356.2263                99.2895               156.8579
  Atom  AN      X      Y      Z        X      Y      Z        X      Y      Z
     1  80    -0.00   0.00  -0.00    -0.00   0.00  -0.00     0.00  -0.00   0.00
     2   1    -0.08   0.52   0.35    -0.04  -0.03   0.02     0.01   0.01  -0.01
     3   8     0.05  -0.07  -0.04     0.00   0.01  -0.01    -0.00  -0.00   0.00
     4   1    -0.22   0.43   0.26     0.03   0.07   0.06    -0.01  -0.02  -0.02
     5   1     0.01  -0.01   0.01     0.20  -0.11   0.02     0.71  -0.38   0.08
     6   8     0.01  -0.00   0.00    -0.01   0.00   0.00    -0.01   0.03  -0.00
     7   1    -0.00  -0.01  -0.00    -0.15   0.01   0.01    -0.50  -0.02  -0.02
     8   1    -0.16   0.06   0.04    -0.03  -0.01   0.12    -0.01  -0.01  -0.04
     9   8    -0.04   0.01  -0.00     0.02  -0.01   0.03    -0.00   0.01  -0.01
    10   1     0.38   0.14   0.13    -0.09   0.00  -0.17     0.03   0.00   0.04
    11   1     0.01   0.02   0.01    -0.02  -0.01  -0.00    -0.07  -0.02  -0.01
    12   8    -0.00  -0.00  -0.00     0.00   0.01   0.00     0.01   0.03   0.01
    13   1     0.01   0.02   0.01     0.00  -0.04  -0.01     0.01  -0.12  -0.03
    14   1    -0.07  -0.27  -0.05    -0.31   0.10  -0.53     0.09  -0.02   0.15
    15   8     0.01   0.01   0.00    -0.03  -0.01   0.05     0.00   0.01  -0.01
    16   1     0.01  -0.01  -0.00     0.68  -0.00   0.00    -0.19   0.01  -0.00
                     25                     26                     27
                      A                      A                      A
 Frequencies --   1154.0714              1213.9129              1322.7488
 Red. masses --      1.0655                 1.1293                 1.1729
 Frc consts  --      0.8361                 0.9804                 1.2091
 IR Inten    --     70.9684              3005.8896              3017.2999
  Atom  AN      X      Y      Z        X      Y      Z        X      Y      Z
     1  80    -0.00   0.00  -0.00    -0.00  -0.00  -0.00     0.00   0.00   0.00
     2   1     0.06   0.06  -0.04    -0.07  -0.06   0.08    -0.03  -0.03   0.02
     3   8    -0.01  -0.01   0.01     0.02   0.02   0.00     0.01   0.00  -0.00
     4   1    -0.01  -0.09  -0.05    -0.07   0.04  -0.03    -0.02   0.02  -0.00
     5   1    -0.02   0.01  -0.01     0.06  -0.02   0.02    -0.16   0.03  -0.08
     6   8    -0.00  -0.01  -0.00    -0.01   0.02   0.01     0.04  -0.08  -0.03
     7   1    -0.01   0.03   0.02     0.07  -0.14  -0.08    -0.36   0.70   0.49
     8   1    -0.12  -0.14  -0.31     0.61   0.53   0.31     0.13   0.11   0.10
     9   8     0.00   0.02  -0.01    -0.06  -0.04  -0.03    -0.01  -0.01  -0.01
    10   1     0.16   0.05   0.10    -0.13  -0.10   0.08    -0.04  -0.02   0.02
    11   1     0.00   0.00  -0.00    -0.02  -0.01   0.01     0.11   0.06  -0.04
    12   8    -0.00   0.00   0.00     0.01  -0.01  -0.00    -0.03   0.02  -0.00
    13   1     0.00  -0.00   0.00    -0.01   0.01  -0.02     0.11  -0.09   0.11
    14   1     0.29  -0.04   0.54     0.12  -0.22   0.19     0.01  -0.06   0.03
    15   8    -0.05   0.00   0.00     0.00   0.00  -0.00    -0.00  -0.00  -0.00
    16   1     0.66  -0.01  -0.04     0.25   0.00  -0.02    -0.00   0.00  -0.01
                     28                     29                     30
                      A                      A                      A
 Frequencies --   1480.6601              1561.2119              1717.3494
 Red. masses --      1.0544                 1.0687                 1.0753
 Frc consts  --      1.3620                 1.5347                 1.8686
 IR Inten    --    479.4239               576.8354               671.5322
  Atom  AN      X      Y      Z        X      Y      Z        X      Y      Z
     1  80    -0.00   0.00  -0.00     0.00  -0.00  -0.00    -0.00  -0.00   0.00
     2   1     0.01   0.01  -0.00    -0.10  -0.15  -0.00     0.24   0.18  -0.21
     3   8    -0.00  -0.00   0.00    -0.01   0.02  -0.04    -0.05  -0.01   0.00
     4   1     0.00  -0.00  -0.00     0.15   0.12   0.14     0.38  -0.01   0.17
     5   1     0.11  -0.07   0.05     0.00  -0.00   0.00     0.14  -0.07  -0.02
     6   8    -0.02   0.02  -0.02    -0.00   0.00  -0.00    -0.02  -0.00   0.00
     7   1     0.28  -0.38   0.81     0.02  -0.03   0.01     0.23   0.14  -0.03
     8   1    -0.01   0.00  -0.03    -0.13  -0.50   0.74     0.53  -0.34  -0.16
     9   8    -0.00  -0.00   0.00     0.01   0.03  -0.04    -0.03   0.03   0.01
    10   1     0.01   0.01  -0.01    -0.09  -0.07   0.14     0.14   0.06   0.08
    11   1    -0.11   0.16   0.14    -0.01   0.00   0.01     0.13  -0.01  -0.06
    12   8     0.00   0.01  -0.04     0.00  -0.00  -0.00    -0.02   0.00   0.00
    13   1     0.11  -0.17   0.02    -0.00   0.00  -0.00     0.07  -0.04   0.07
    14   1    -0.00   0.01  -0.01     0.10  -0.14   0.18    -0.12  -0.27  -0.14
    15   8     0.00  -0.00   0.00    -0.01   0.00  -0.00     0.00   0.00   0.00
    16   1    -0.01   0.00   0.00     0.05  -0.00  -0.01    -0.02  -0.01   0.00
                     31                     32                     33
                      A                      A                      A
 Frequencies --   1720.0546              1786.5632              1794.1470
 Red. masses --      1.0783                 1.0687                 1.0602
 Frc consts  --      1.8796                 2.0098                 2.0108
 IR Inten    --    243.9560               354.4548               129.1140
  Atom  AN      X      Y      Z        X      Y      Z        X      Y      Z
     1  80    -0.00  -0.00  -0.00    -0.00  -0.00  -0.00    -0.00   0.00  -0.00
     2   1    -0.09  -0.07   0.08     0.03   0.03  -0.02     0.33   0.37  -0.23
     3   8     0.02   0.00  -0.00    -0.00  -0.00  -0.00    -0.04  -0.03   0.00
     4   1    -0.14   0.01  -0.06     0.04   0.00   0.02     0.42   0.01   0.22
     5   1     0.36  -0.18  -0.05    -0.18   0.10   0.04     0.01  -0.01  -0.00
     6   8    -0.05  -0.00   0.00     0.02   0.01   0.00    -0.00  -0.00  -0.00
     7   1     0.61   0.36  -0.08    -0.25  -0.39  -0.09     0.01   0.03   0.01
     8   1    -0.21   0.12   0.07    -0.03   0.03   0.02    -0.35   0.44   0.12
     9   8     0.01  -0.01  -0.00     0.00  -0.00  -0.00     0.03  -0.01  -0.01
    10   1    -0.05  -0.02  -0.03    -0.01  -0.00  -0.01    -0.32  -0.14   0.00
    11   1     0.32  -0.03  -0.16     0.50  -0.05  -0.28    -0.04   0.00   0.02
    12   8    -0.04   0.00   0.01    -0.05   0.03  -0.00     0.00  -0.00   0.00
    13   1     0.17  -0.09   0.17     0.37  -0.41   0.29    -0.03   0.03  -0.02
    14   1     0.05   0.12   0.05     0.01   0.02   0.01     0.08  -0.09   0.04
    15   8     0.00  -0.00  -0.00     0.00  -0.00   0.00     0.00   0.00  -0.00
    16   1     0.00   0.00   0.00     0.00   0.00   0.00     0.01  -0.00  -0.00
                     34                     35                     36
                      A                      A                      A
 Frequencies --   1831.1796              3023.3536              3687.9234
 Red. masses --      1.0941                 1.0658                 1.0404
 Frc consts  --      2.1617                 5.7401                 8.3374
 IR Inten    --    726.5767              1970.8998                99.8665
  Atom  AN      X      Y      Z        X      Y      Z        X      Y      Z
     1  80    -0.00   0.00  -0.00    -0.00   0.00  -0.00    -0.00   0.00  -0.00
     2   1     0.11   0.10  -0.09     0.00  -0.01   0.00     0.01  -0.00   0.01
     3   8    -0.02  -0.01  -0.01     0.00   0.00   0.00    -0.00  -0.00   0.00
     4   1     0.20   0.02   0.11     0.00   0.00  -0.01     0.00   0.01  -0.01
     5   1    -0.00   0.00  -0.00     0.00   0.00   0.00    -0.01  -0.02  -0.01
     6   8     0.00  -0.00  -0.00     0.00  -0.00   0.00     0.00   0.00   0.00
     7   1    -0.01   0.02   0.01    -0.01   0.01   0.00    -0.02   0.01  -0.00
     8   1     0.12   0.07   0.28    -0.03  -0.06  -0.01    -0.00  -0.00  -0.00
     9   8    -0.04  -0.06  -0.01    -0.05  -0.00   0.03     0.00   0.00  -0.00
    10   1     0.47   0.19  -0.18    -0.03   0.06   0.04     0.00  -0.00  -0.00
    11   1    -0.02   0.00   0.01     0.00  -0.00   0.00     0.21  -0.42   0.54
    12   8     0.00  -0.00   0.00     0.00  -0.00  -0.00    -0.04   0.02  -0.00
    13   1    -0.01   0.02  -0.01     0.00   0.00  -0.00     0.48   0.15  -0.48
    14   1     0.06   0.71   0.12     0.86  -0.01  -0.50    -0.00   0.00   0.00
    15   8     0.00  -0.01  -0.00     0.00   0.00  -0.00    -0.00   0.00  -0.00
    16   1     0.00   0.01   0.00     0.02  -0.00   0.01     0.00  -0.01   0.02
                     37                     38                     39
                      A                      A                      A
 Frequencies --   3693.6153              3710.9611              3729.5236
 Red. masses --      1.0405                 1.0662                 1.0658
 Frc consts  --      8.3638                 8.6512                 8.7340
 IR Inten    --     77.6217               117.4576               159.3948
  Atom  AN      X      Y      Z        X      Y      Z        X      Y      Z
     1  80     0.00  -0.00  -0.00     0.00   0.00  -0.00     0.00  -0.00   0.00
     2   1    -0.48   0.20  -0.45    -0.00   0.00  -0.00    -0.00   0.00  -0.00
     3   8     0.04   0.02  -0.00     0.00  -0.00   0.00     0.00   0.00   0.00
     4   1    -0.22  -0.44   0.53     0.00   0.00  -0.00    -0.00  -0.00   0.00
     5   1    -0.00  -0.00  -0.00     0.02   0.05   0.01     0.45   0.87   0.20
     6   8     0.00   0.00   0.00    -0.00  -0.00  -0.00    -0.03  -0.05  -0.01
     7   1     0.00  -0.00  -0.00    -0.00   0.00   0.00    -0.02  -0.01   0.01
     8   1     0.02   0.00  -0.00    -0.00   0.00  -0.00    -0.00   0.00  -0.00
     9   8    -0.00   0.00   0.00    -0.00   0.00   0.00    -0.00   0.00   0.00
    10   1     0.01  -0.03  -0.01     0.01  -0.03  -0.01     0.01  -0.03  -0.01
    11   1     0.00  -0.01   0.01    -0.01   0.01  -0.01     0.01  -0.01   0.02
    12   8    -0.00   0.00  -0.00     0.00  -0.00   0.00    -0.00   0.00  -0.00
    13   1     0.01   0.00  -0.01    -0.01  -0.00   0.01     0.01   0.00  -0.01
    14   1     0.01   0.00  -0.01    -0.01   0.00   0.00    -0.00   0.00   0.00
    15   8    -0.00  -0.00   0.00    -0.00   0.01  -0.06     0.00  -0.00   0.00
    16   1     0.00   0.00  -0.00     0.06  -0.24   0.97    -0.00   0.01  -0.05
                     40                     41                     42
                      A                      A                      A
 Frequencies --   3745.7322              3791.7352              3798.0242
 Red. masses --      1.0653                 1.0844                 1.0847
 Frc consts  --      8.8065                 9.1861                 9.2186
 IR Inten    --    192.6057               202.3282               211.3898
  Atom  AN      X      Y      Z        X      Y      Z        X      Y      Z
     1  80     0.00  -0.00  -0.00     0.00   0.00   0.00     0.00  -0.00  -0.00
     2   1    -0.01   0.00  -0.01     0.00  -0.00   0.00     0.54  -0.19   0.44
     3   8     0.00   0.00  -0.00    -0.00   0.00  -0.00    -0.02   0.04  -0.06
     4   1    -0.01  -0.01   0.02    -0.00  -0.00   0.00    -0.26  -0.41   0.49
     5   1     0.02   0.03   0.01     0.00   0.00   0.00    -0.00  -0.00  -0.00
     6   8    -0.00  -0.00  -0.00    -0.00  -0.00   0.00    -0.00   0.00   0.00
     7   1    -0.00  -0.00   0.00    -0.00  -0.00   0.00     0.00  -0.00   0.00
     8   1     0.01  -0.01   0.01    -0.00   0.00  -0.00    -0.00   0.00  -0.00
     9   8     0.02  -0.06  -0.02    -0.00  -0.00  -0.00    -0.00   0.00  -0.00
    10   1    -0.34   0.91   0.20    -0.00   0.00  -0.00     0.00  -0.00  -0.00
    11   1     0.00  -0.00   0.00    -0.26   0.40  -0.51     0.00  -0.00   0.00
    12   8    -0.00   0.00   0.00    -0.02  -0.03   0.06     0.00   0.00  -0.00
    13   1     0.00   0.00  -0.00     0.53   0.13  -0.46    -0.00  -0.00   0.00
    14   1    -0.04  -0.03   0.03     0.00   0.00  -0.00     0.00   0.00   0.00
    15   8    -0.00   0.00  -0.00     0.00   0.00   0.00    -0.00   0.00  -0.00
    16   1     0.00  -0.01   0.03     0.00   0.00  -0.00     0.00  -0.00   0.00

 -------------------
 - Thermochemistry -
 -------------------
 Temperature   298.150 Kelvin.  Pressure   1.00000 Atm.
 Atom     1 has atomic number 80 and mass 201.97060
 Atom     2 has atomic number  1 and mass   1.00783
 Atom     3 has atomic number  8 and mass  15.99491
 Atom     4 has atomic number  1 and mass   1.00783
 Atom     5 has atomic number  1 and mass   1.00783
 Atom     6 has atomic number  8 and mass  15.99491
 Atom     7 has atomic number  1 and mass   1.00783
 Atom     8 has atomic number  1 and mass   1.00783
 Atom     9 has atomic number  8 and mass  15.99491
 Atom    10 has atomic number  1 and mass   1.00783
 Atom    11 has atomic number  1 and mass   1.00783
 Atom    12 has atomic number  8 and mass  15.99491
 Atom    13 has atomic number  1 and mass   1.00783
 Atom    14 has atomic number  1 and mass   1.00783
 Atom    15 has atomic number  8 and mass  15.99491
 Atom    16 has atomic number  1 and mass   1.00783
 Molecular mass:   292.02342 amu.
 Principal axes and moments of inertia in atomic units:
                           1         2         3
     Eigenvalues --   479.311444637.344934930.73474
           X            0.99998  -0.00688   0.00146
           Y            0.00687   0.99998   0.00151
           Z           -0.00147  -0.00150   1.00000
 This molecule is an asymmetric top.
 Rotational symmetry number  1.
 Warning -- assumption of classical behavior for rotation
[...]
   yy         0.424228D+02      0.628642D+01      0.699458D+01
   zx        -0.549693D+01     -0.814562D+00     -0.906322D+00
   zy         0.206136D+01      0.305463D+00      0.339873D+00
   zz         0.419174D+02      0.621152D+01      0.691124D+01

 ----------------------------------------------------------------------

 Dipole orientation:
    80         -0.57564906         -0.32372835         -2.18306921
     1         -2.43409022         -0.28376955         10.46250525
     8         -1.02155230         -0.49345182          9.29985729
     1          0.47420490         -0.87711329         10.30509030
     1          0.69969831         -1.46918434         -6.76955814
     8          1.38081279         -0.33329324         -5.48854422
     1          2.28816995          1.39350456         -6.36405153
     1         -1.34400686         -1.80820659          7.25572291
     8         -1.44826250         -2.90975283          5.40724162
     1         -2.54331543         -4.38768715          5.49866598
     1          5.24797102          3.24153004         -7.54199919
     8          3.44199514          3.40617054         -7.21134301
     1          2.70240488          4.30112380         -8.64211666
     1         -1.80681576         -1.91991292          3.80634917
     8         -2.26221825         -0.43800138          1.14543669
     1         -3.81398503          0.55319307          1.05138655

 Electric dipole moment (dipole orientation):
 (Debye = 10**-18 statcoulomb cm , SI units = C m)
                  (au)            (Debye)         (10**-30 SI)
   Tot        0.196575D+01      0.499644D+01      0.166663D+02
   x          0.000000D+00      0.000000D+00      0.000000D+00
   y          0.000000D+00      0.000000D+00      0.000000D+00
   z          0.196575D+01      0.499644D+01      0.166663D+02

 Dipole polarizability, Alpha (dipole orientation).
 (esu units = cm**3 , SI units = C**2 m**2 J**-1)
 Alpha(0;0):
               (au)            (10**-24 esu)      (10**-40 SI)
   iso        0.526882D+02      0.780758D+01      0.868710D+01
   aniso      0.331774D+02      0.491639D+01      0.547022D+01
   xx         0.456048D+02      0.675793D+01      0.751921D+01
   yx         0.390332D+01      0.578412D+00      0.643570D+00
   yy         0.424349D+02      0.628820D+01      0.699657D+01
   zx        -0.100161D+02     -0.148423D+01     -0.165143D+01
   zy        -0.483977D+01     -0.717180D+00     -0.797971D+00
   zz         0.700248D+02      0.103766D+02      0.115455D+02

 ----------------------------------------------------------------------
 1\1\GINC-CTCP002\Freq\RMP2-Full\SDDAll\H10Hg1O5(2+)\FLOREZ\11-May-2022
 \0\\#p MP2(full) SDDAll freq\\file 'w5s2.log' Now we use Def2-QZVPPD, 
 but it was opt at: ---' #p ZORA-SR+SO PBE QZ4P'---\\2,1\Hg,1.029734,0.
 477397,0.410412\H,-5.604121,-0.839895,0.472347\O,-4.898663,-0.738576,-
 0.192209\H,-5.310966,-0.811696,-1.072749\H,3.379012,1.467635,-0.052032
 \O,2.901409,0.674311,-0.357441\H,3.606367,-0.187903,-0.556968\H,-4.015
 308,0.198937,-0.037236\O,-3.190252,0.983765,0.017388\H,-3.487093,1.830
 688,0.397394\H,4.669984,-1.281137,-1.770078\O,4.34852,-1.222778,-0.850
 954\H,5.10016,-1.434171,-0.26695\H,-2.306535,0.706204,0.429753\O,-0.84
 0849,0.313504,1.024157\H,-0.83884,-0.022187,1.940239\\Version=ES64L-G1
 6RevA.03\State=1-A\HF=-236.5018595\MP2=-237.2965445\RMSD=6.555e-09\RMS
 F=8.076e-03\ZeroPoint=0.1210994\Thermal=0.1308175\Dipole=-1.8988606,-0
 .4355793,-0.2622462\DipoleDeriv=1.7905828,0.0358097,-0.3053875,0.15173
 24,0.8883104,-0.0489835,-0.4000025,-0.0170531,1.0328977,0.3528549,-0.0
 479862,0.0192708,-0.0138439,0.4787517,-0.0504349,-0.0188817,-0.0477295
 ,0.3971438,-0.9087595,-0.1779875,-0.0619363,-0.3404754,-1.0285819,-0.0
 586296,-0.0883294,-0.0434937,-0.5467021,0.3589177,-0.060376,-0.0369042
 ,-0.0310589,0.4760168,0.0446214,0.0124207,0.0324512,0.405561,0.3073462
 ,0.0122125,0.0152542,0.1252334,0.3804233,-0.0876137,0.0662128,-0.06087
 03,0.3621637,-1.381313,0.3423889,0.3340311,0.4133123,-0.8639212,-0.095
 3261,0.2871462,-0.0243248,-0.6732247,1.1252753,-0.6358275,-0.309627,-1
 .0887905,1.1217006,0.4112066,-0.3009292,0.2250125,0.4718644,1.3162628,
 0.6591689,0.1554869,0.8656329,0.9879946,0.1341267,0.1891301,0.1144441,
 0.4346441,-1.5102042,-0.2671725,-0.1336662,-0.2581891,-0.7983572,0.037
 3047,-0.247214,0.0985859,-0.675941,0.3774169,-0.0203368,-0.0246298,-0.
 0463922,0.4258074,-0.0470357,-0.0025771,-0.1003418,0.4197548,0.3650504
 ,0.0670387,0.0431782,0.0373458,0.4522974,0.0431923,-0.0162534,0.037498
 6,0.4105595,-0.8614751,0.1599844,0.123519,0.4197991,-1.0603728,-0.1851
 583,0.139174,-0.1003319,-0.5679404,0.3613373,0.0473701,-0.0151776,0.01
 17806,0.4675968,-0.0436896,0.0338132,-0.0553359,0.3782311,1.3987768,-0
 .1545749,0.1575444,-0.3232622,0.3528838,-0.0634375,0.367339,-0.0631455
 ,0.4404637,-1.2738,0.0316463,0.0337954,0.0028322,-0.6453634,-0.0249013
 ,0.1611811,-0.0396162,-0.5672399,0.1817309,0.008642,0.0052486,0.074343
 5,0.3648136,0.0347584,-0.1822299,0.0442503,0.2777641\Polar=73.7242647,
 -0.7044611,42.4228359,-5.4969342,2.0613641,41.9173945\PG=C01 [X(H10Hg1
 O5)]\NImag=5\\0.41076396,0.04086886,0.03971093,-0.14076668,-0.01611731
 ,0.08856317,-0.00032397,-0.00010609,0.00017720,0.26947190,-0.00009880,
 0.00011495,0.00004703,0.04993767,0.01858770,0.00009398,-0.00001087,0.0
 0011507,-0.22168641,-0.03034408,0.28524896,0.00177997,0.00020042,-0.00
 069759,-0.27747436,-0.04346313,0.18150985,0.46165014,0.00134216,-0.000
 30554,-0.00082266,-0.05453218,-0.02767966,0.02441737,0.11633568,0.1046
 3773,0.00039120,-0.00000839,-0.00054491,0.23631233,0.02386471,-0.26131
 398,-0.04809302,0.00920171,0.70684398,-0.00026369,-0.00013019,-0.00012
 118,0.01204534,0.00252502,0.04016526,-0.13188593,-0.03521890,-0.186508
 44,0.11987140,-0.00011225,0.00014392,0.00009159,0.00211372,0.00792017,
 0.00516371,-0.02692540,-0.02599347,-0.02578024,0.02998877,0.01641136,-
 0.00027749,-0.00002848,0.00029754,-0.02285124,-0.00279721,-0.03017967,
 -0.13166793,-0.03030695,-0.40669836,0.15743389,0.03316883,0.43578604,-
 0.01277546,-0.01521978,-0.00348578,-0.00001982,-0.00001312,0.00001040,
 0.00010880,0.00009974,0.00001675,-0.00001834,-0.00001406,-0.00001216,0
 .15516139,0.00008395,0.00274137,-0.00203436,-0.00004477,0.00000928,0.0
 0000178,0.00016981,0.00007663,0.00004463,-0.00003481,0.00001088,-0.000
 03039,0.17972195,0.34965298,0.00986011,0.00767090,0.00186693,-0.000003
 25,-0.00000941,0.00002079,0.00004076,0.00004723,-0.00001982,-0.0000151
 3,-0.00000949,0.00001141,0.05826605,0.12659776,0.05345100,-0.15788654,
 -0.00822353,0.06044422,0.00020205,0.00010290,-0.00005210,-0.00105248,-
 0.00096604,-0.00027599,0.00012851,0.00011625,0.00018662,-0.15549805,-0
 .16486800,-0.06237453,0.40460886,-0.02248313,-0.03600630,0.00493700,-0
 .00002529,-0.00006474,0.00001313,0.00019841,0.00029151,0.00006236,-0.0
 0000458,-0.00008142,-0.00003617,-0.18160027,-0.33869246,-0.13242862,0.
 13066077,0.49193163,0.04636988,-0.00191166,-0.03806114,-0.00008243,-0.
 00002885,-0.00001420,0.00042022,0.00040860,0.00018772,-0.00000686,-0.0
 0004160,-0.00012243,-0.06080504,-0.11460362,-0.05721222,-0.00681456,0.
 14628866,0.11431476,-0.01586032,0.00150237,0.00488658,-0.00012270,-0.0
 0007869,0.00003796,0.00065090,0.00060767,0.00014875,-0.00009342,-0.000
 08649,-0.00010418,0.01936726,-0.02108952,-0.00753769,-0.07024120,0.022
 99837,0.00683334,0.07833056,0.00824690,0.01400129,-0.00114731,0.000138
 83,0.00012776,-0.00003816,-0.00081261,-0.00088044,-0.00022917,0.000074
 65,0.00015005,0.00015119,0.00981736,-0.01109627,0.00053065,-0.00990137
 ,-0.07460319,-0.01140455,0.01397033,0.06870178,0.00909947,-0.00078415,
 -0.00238132,0.00004705,0.00002564,0.00000807,-0.00024028,-0.00024302,-
 0.00010159,0.00001074,0.00003834,0.00006666,0.00333082,-0.00939839,0.0
 0191705,-0.00806510,-0.00042110,-0.03340946,0.00429098,0.00378322,0.07
 399357,-0.00330081,-0.00003867,0.00143117,-0.00251854,-0.00417334,0.00
 542832,-0.00878546,0.02451987,0.00570538,0.00300371,-0.00121245,-0.007
 20109,-0.00021787,-0.00028262,-0.00007991,0.00203786,-0.00046125,-0.00
 082969,-0.00126043,0.00165302,0.00047958,0.07412277,-0.00238457,0.0002
 2367,0.00151712,0.00602886,0.00684340,0.00632191,0.00689982,-0.0157860
 4,-0.00171166,0.00672060,0.00611299,-0.00344186,-0.00017530,-0.0001819
 7,-0.00007517,0.00173198,-0.00039836,-0.00076164,-0.00105471,0.0014550
 9,0.00042164,-0.01789207,0.07172461,-0.00067644,0.00011454,0.00074862,
 0.00973666,0.01198862,0.00758614,0.00646324,0.00343804,-0.05332004,-0.
 01254316,-0.01427636,0.00151114,-0.00003993,-0.00006847,0.00001658,0.0
 0048298,-0.00011326,-0.00027757,-0.00026655,0.00039290,0.00014709,-0.0
 0059074,0.00423396,0.07953632,0.00561664,0.00156201,-0.00470894,-0.000
 11961,-0.00217342,-0.00504672,-0.03864606,-0.05158530,-0.00969969,-0.0
 0292899,-0.00237197,0.00520257,0.00029541,0.00060739,0.00015479,-0.003
 44188,0.00043693,0.00166792,0.00206083,-0.00270664,-0.00081166,-0.0733
 4677,0.01032178,0.01338134,0.51247132,0.00039588,-0.00105104,0.0013128
 0,-0.00229114,-0.00465059,-0.00475009,-0.04747255,-0.02833830,-0.00731
 084,-0.00360073,-0.00464905,0.00353458,0.00003913,-0.00015613,0.000043
 99,0.00010211,0.00012699,-0.00029166,0.00005898,-0.00009727,-0.0000262
 3,-0.00404436,-0.07676395,0.01182518,-0.13474980,0.58398275,0.00112167
 ,0.00141194,-0.00339687,-0.00227017,-0.00271438,-0.00235008,-0.0097903
 2,-0.00963443,0.01508354,0.00181719,0.00232644,-0.00096491,0.00002944,
 0.00027437,-0.00001401,-0.00125129,-0.00005915,0.00084488,0.00064519,-
 0.00090871,-0.00033887,-0.00643274,-0.00515812,-0.03737675,0.09168346,
 0.13961205,0.19844002,-0.00105784,0.00038986,0.00002026,-0.00080330,-0
 .00180419,-0.00035988,-0.00722426,-0.00226778,0.00052702,-0.00014748,-
 0.00090569,-0.00033291,-0.00006608,-0.00003132,-0.00002678,0.00040378,
 -0.00013440,-0.00007120,-0.00029841,0.00037536,0.00011091,0.02093294,-
 0.01361682,-0.00722358,-0.10868956,0.10856242,0.02962768,0.10103614,0.
 00055728,0.00061511,-0.00049647,-0.00082737,-0.00112441,-0.00035184,-0
 .00146870,0.00146178,0.00174592,-0.00014015,-0.00018875,-0.00036810,0.
 00000176,0.00014192,0.00000885,-0.00046843,-0.00007651,0.00025262,0.00
 020404,-0.00023602,-0.00008103,0.01085476,-0.01374817,-0.01119666,0.11
 635345,-0.37475863,-0.13785151,-0.12614671,0.39572709,-0.00019460,-0.0
 0027918,0.00039985,0.00039398,0.00014994,0.00048756,0.00014723,0.00100
 820,-0.00031087,0.00007332,-0.00069330,0.00026236,0.00002441,-0.000039
 49,0.00004376,0.00004884,0.00008020,-0.00007323,-0.00000982,0.00000542
 ,0.00003661,0.00297625,0.00052521,0.00153022,0.04521521,-0.17579752,-0
 .08940536,-0.04003114,0.15834019,0.07930528,0.00022245,0.00046186,0.00
 062286,-0.00001741,0.00000515,0.00001475,0.00005797,-0.00000807,-0.000
 02213,-0.00003650,0.00001442,0.00001203,-0.00006284,0.00020214,-0.0000
 8729,-0.00270986,0.00368093,-0.00100510,0.00363195,-0.00716354,0.00963
 627,-0.00006881,-0.00001348,0.00001949,0.00008656,-0.00002022,-0.00003
 183,-0.00001925,0.00002496,0.00001296,0.08743652,0.00055852,0.00020705
 ,-0.00002305,-0.00000037,0.00002390,-0.00000185,-0.00004160,-0.0000986
 1,-0.00001693,-0.00000665,0.00003135,0.00000960,0.00070122,-0.00031501
 ,-0.00087279,0.00284822,-0.00523513,0.00198506,0.00009040,0.00746772,-
 0.01496623,0.00011545,0.00013150,0.00002639,-0.00015112,-0.00005900,-0
 .00003096,0.00002532,0.00001086,-0.00001161,-0.02732642,0.01910442,0.0
 0103423,0.00019831,0.00002958,0.00001734,0.00000273,0.00001129,-0.0000
 7358,-0.00006654,-0.00004712,-0.00000083,0.00000974,0.00003204,0.00030
 683,-0.00022985,0.00023294,-0.00451943,0.00347349,0.00030352,0.0066076
 4,-0.00362187,-0.00154333,0.00014705,0.00012375,0.00005981,-0.00025508
 ,0.00000790,-0.00013483,0.00003137,-0.00002992,0.00002498,-0.12283023,
 0.02489400,0.46450554,0.00537235,0.00157842,-0.00242126,0.00008015,0.0
 0002453,-0.00002474,-0.00036544,-0.00026573,-0.00006539,0.00007599,0.0
 0002169,0.00004776,-0.00629431,0.00405882,0.00158488,-0.02533533,0.044
 97798,0.01507399,-0.01351689,-0.00858618,-0.01037373,0.00066218,0.0005
 0166,0.00012329,-0.00107334,0.00001742,-0.00031712,0.00015364,-0.00013
 269,0.00000613,-0.09794454,0.02594054,0.10089254,0.44056960,-0.0074584
 1,-0.00609262,0.00247078,-0.00006085,-0.00009152,0.00002370,0.00042536
 ,0.00053406,0.00011946,-0.00002661,-0.00010768,-0.00007773,0.00374718,
 -0.00087176,-0.00040885,0.05026003,-0.04221751,-0.01795636,-0.02502152
 ,-0.00743997,0.00958942,-0.00090792,-0.00084105,-0.00021088,0.00143684
 ,0.00012023,0.00045883,-0.00020356,0.00009631,0.00001163,0.03069431,-0
 .02926819,-0.02207897,-0.14978432,0.13091381,-0.00312320,-0.00061878,0
 .00027900,-0.00003222,-0.00000925,-0.00001817,0.00013847,0.00013770,0.
 00008415,0.00000293,-0.00002383,-0.00005424,0.00085380,0.00088381,-0.0
 0034588,0.01605082,-0.01645055,0.01030231,-0.01139095,0.00341328,-0.04
 906768,-0.00027973,-0.00024567,-0.00010911,0.00048206,-0.00000465,0.00
 024228,-0.00005959,0.00005520,-0.00003867,0.15705023,-0.02276103,-0.43
 543477,0.06306579,-0.01742949,0.69021644,-0.00066355,0.00045430,-0.000
 16300,-0.00002371,0.00000463,0.00000268,0.00008031,0.00002737,0.000015
 05,-0.00002328,0.00000570,-0.00001024,-0.00038356,0.00066676,-0.000196
 49,0.00100140,0.00103740,0.00161531,-0.00408236,-0.00334995,-0.0071890
 7,-0.00012594,-0.00007603,-0.00002320,0.00020684,-0.00002222,0.0000643
 1,-0.00002922,0.00003698,-0.00000589,0.00948072,-0.00270624,0.01872682
 ,-0.30196567,0.09611596,-0.22283144,0.29653747,0.00086005,0.00020577,-
 0.00025247,0.00000045,0.00002442,-0.00000748,-0.00004789,-0.00009396,-
 0.00000665,0.00000037,0.00002549,0.00000392,0.00148891,-0.00145036,-0.
 00005060,0.00091997,-0.00426576,-0.00328670,0.00737743,0.00507180,0.01
 215782,0.00011946,0.00012750,0.00001938,-0.00016115,-0.00004910,-0.000
 02728,0.00002630,0.00000643,-0.00001157,-0.00051580,0.00802739,-0.0025
 5071,0.08222920,-0.04589737,0.05280111,-0.09222124,0.03830072,-0.00032
 360,-0.00056172,0.00073684,-0.00000039,-0.00000845,0.00001663,0.000026
 35,0.00002752,-0.00002016,-0.00001191,-0.00000242,0.00001180,0.0003754
 5,-0.00074808,0.00032719,0.00450274,-0.00545812,-0.00351787,-0.0031996
 5,0.00740480,0.00967993,-0.00005074,-0.00004146,0.00001258,0.00007539,
 0.00001187,-0.00001914,-0.00001576,0.00000154,0.00002086,-0.04336860,0
 .01175316,-0.02817805,-0.16821452,0.04640375,-0.21569715,0.21004828,-0
 .05888435,0.23671880,-0.00671146,-0.00218650,0.00636603,-0.00051935,-0
 .00117240,0.00040819,0.00458192,0.00663776,0.00207184,0.00023740,-0.00
 107397,-0.00098799,-0.00030590,-0.00089941,-0.00014203,0.00451550,-0.0
 0038604,-0.00251222,-0.00254270,0.00339936,0.00106616,-0.01792353,-0.0
 0625596,-0.00947706,-0.25579995,0.07474841,-0.08943629,-0.00257460,0.0
 0319529,-0.00725490,-0.00008067,0.00015990,0.00033892,0.00132642,-0.00
 176375,-0.00064022,-0.00026254,0.00017568,-0.00007617,0.26234146,-0.00
 014890,0.00127694,-0.00285806,-0.00042041,0.00009942,-0.00060676,-0.00
 480223,-0.00967440,-0.00011042,-0.00030275,0.00042432,0.00033536,0.000
 07844,0.00036516,-0.00000366,-0.00129328,0.00028076,0.00100740,0.00064
 177,-0.00089670,-0.00022405,-0.00713345,0.02484216,-0.00617033,0.05254
 021,-0.09909119,0.00931260,0.03706692,-0.00798272,0.01656882,0.0000400
 2,-0.00001171,-0.00009619,-0.00038881,0.00042296,0.00016970,0.00008734
 ,-0.00001730,0.00001728,-0.07007192,0.10092274,0.00137944,-0.00210045,
 0.00508715,0.00045072,-0.00025465,0.00067710,0.00250044,0.00357035,-0.
 00020292,-0.00043916,-0.00004264,0.00009013,-0.00002446,-0.00036487,-0
 .00007317,0.00184004,0.00008940,-0.00120990,-0.00091530,0.00137909,0.0
 0042496,-0.00159819,-0.00406528,0.00072391,-0.12432541,0.02983556,-0.0
 8412057,0.01945938,-0.01025401,0.00928290,0.00002709,0.00005769,0.0001
 6680,0.00046733,-0.00070248,-0.00031233,-0.00009207,0.00005310,0.00000
 218,0.09408182,-0.01924190,0.08715883,-0.21052376,-0.01175101,0.051588
 45,0.00036747,0.00035785,-0.00027859,-0.00325251,-0.00420343,-0.000875
 83,-0.00000698,0.00043546,0.00064107,0.00107448,0.00171452,0.00041825,
 0.00529662,0.00023312,0.00151465,0.00397894,-0.00449411,-0.00135033,0.
 00651761,0.00816092,0.00127808,-0.03038558,0.00787043,-0.01558781,-0.0
 0137428,-0.00241969,-0.00071670,0.00002024,-0.00020048,-0.00042865,-0.
 00161122,0.00219989,0.00071227,0.00029358,-0.00022235,0.00014527,0.004
 35125,-0.00664050,0.01215385,0.25267116,-0.02137416,-0.01746506,0.0109
 1777,0.00024014,-0.00032244,0.00021266,0.00065585,0.00229676,0.0000143
 0,0.00022972,-0.00030207,-0.00007041,0.00116249,-0.00012744,-0.0011182
 5,-0.00180011,0.00824041,0.00056061,0.00031864,-0.00223879,0.00008543,
 -0.00131283,-0.00432089,-0.00005687,0.00986861,0.00587214,0.00349755,-
 0.00171337,0.00002127,-0.00051739,-0.00008023,-0.00009342,-0.00005745,
 -0.00031816,0.00112249,0.00010109,-0.00008785,-0.00011171,0.00012684,-
 0.00282986,-0.01244956,0.00012694,0.01238933,0.08247910,0.07804927,0.0
 0997383,-0.04737233,-0.00019169,0.00002619,-0.00033083,-0.00056323,-0.
 00075516,0.00044694,0.00017618,0.00000696,-0.00010441,0.00089755,-0.00
 045742,-0.00031777,0.00189695,-0.00042571,0.00648131,-0.00089112,0.001
 42746,0.00089626,0.00061714,0.00149592,-0.00076610,-0.01194517,0.00211
 477,0.00321766,-0.00147321,0.00040913,-0.00152980,-0.00009447,0.000003
 30,0.00006243,0.00063247,-0.00081612,-0.00022102,-0.00004209,0.0000973
 4,-0.00016460,0.00282883,0.00149697,-0.01666658,-0.06261337,-0.1704480
 0,0.48604261,-0.01438796,-0.00936234,0.02682766,-0.00022412,0.00001935
 ,-0.00022296,-0.00022351,-0.00052283,0.00035218,0.00004226,0.00000628,
 -0.00007872,-0.00036512,0.00002512,0.00013827,-0.00202923,0.00087104,-
 0.00136822,-0.00000199,-0.00066140,-0.00004182,0.00027108,0.00110331,-
 0.00064443,-0.00630589,0.00040626,0.00012864,-0.00024221,0.00037522,-0
 .00068530,0.00000346,-0.00000668,0.00000507,-0.00013360,0.00034736,0.0
 0000100,-0.00004050,-0.00002942,0.00008786,0.00936675,0.00074756,-0.00
 496551,-0.02741703,0.00465179,-0.00728403,0.04168760,0.00114664,0.0016
 7957,0.00245760,-0.00015119,0.00018237,-0.00004313,0.00014875,-0.00044
 806,0.00012122,-0.00007376,0.00009190,-0.00004618,0.00016435,-0.000106
 84,0.00007747,0.00077852,0.00077007,-0.00021629,-0.00043907,0.00051318
 ,0.00004270,0.00019640,0.00057951,0.00005382,0.00077220,-0.00043784,-0
 .00050922,0.00037765,0.00003443,0.00066043,0.00000396,0.00007687,0.000
 02159,0.00012563,-0.00038221,-0.00001863,0.00002709,0.00009605,-0.0000
 4214,-0.00167659,0.00148912,0.00191417,-0.00342994,-0.06260079,0.15585
 052,0.00202936,0.05846267,-0.00203723,0.00305147,-0.00636716,-0.000017
 49,0.00006143,0.00003533,-0.00012062,-0.00042796,-0.00006656,-0.000032
 85,0.00006428,0.00005491,0.00025587,0.00017260,0.00009523,-0.00210023,
 0.00044845,0.00146355,0.00086483,-0.00113823,-0.00032793,0.00027795,0.
 00086136,-0.00002285,-0.00107007,-0.00011771,0.00029300,-0.00018256,-0
 .00018390,-0.00003645,0.00004397,-0.00004475,-0.00009082,-0.00047741,0
 .00060331,0.00017483,0.00008105,-0.00005485,0.00007018,0.00336508,0.00
 040326,-0.00102848,0.01339938,0.15662518,-0.42967376,-0.01224968,-0.16
 032393,0.43542699\\-0.00568844,-0.00017293,0.01103996,-0.00057693,0.00
 678865,-0.00951583,0.01302755,-0.01319961,0.00034803,-0.00501504,0.005
 70394,0.00923656,-0.00415474,-0.00861022,0.00443591,-0.01045833,0.0047
 1450,-0.00990584,0.00930645,0.00068759,0.00439216,-0.00970323,0.001520
 23,0.00797126,0.00583692,0.00556458,-0.02286105,0.00156461,-0.00908478
 ,0.00651593,0.00613146,0.00466478,0.00918224,-0.01335532,-0.01136085,0
 .00138000,0.00023423,0.00726203,-0.00934452,-0.00563351,0.00299336,0.0
 0947122,0.01097078,-0.00182312,-0.00224299,0.00751355,0.00435184,-0.01
 010306\\\@


      SCIENCE SANS CONSCIENCE N'EST QUE RUINE DE L'AME.

                                                  -- RABELAIS
 Job cpu time:       0 days  0 hours 27 minutes 20.5 seconds.
 Elapsed time:       0 days  0 hours  0 minutes 59.4 seconds.
 File lengths (MBytes):  RWF=   1771 Int=      0 D2E=      0 Chk=      3 Scr=      1
 Normal termination of Gaussian 16 at Wed May 11 21:28:40 2022.
