 Entering Gaussian System, Link 0=g16
 Initial command:
 /cm/shared/apps/gaussian/intel/EM64T/SSE4_2-enabled/binary//g16/l1.exe "/scratch/florez/25750/Gau-31167.inp" -scrdir="/scratch/florez/25750/"
 Entering Link 1 = /cm/shared/apps/gaussian/intel/EM64T/SSE4_2-enabled/binary//g16/l1.exe PID=     31170.
  
 Copyright (c) 1988,1990,1992,1993,1995,1998,2003,2009,2016,
            Gaussian, Inc.  All Rights Reserved.
  
 This is part of the Gaussian(R) 16 program.  It is based on
 the Gaussian(R) 09 system (copyright 2009, Gaussian, Inc.),
 the Gaussian(R) 03 system (copyright 2003, Gaussian, Inc.),
 the Gaussian(R) 98 system (copyright 1998, Gaussian, Inc.),
 the Gaussian(R) 94 system (copyright 1995, Gaussian, Inc.),
 the Gaussian 92(TM) system (copyright 1992, Gaussian, Inc.),
 the Gaussian 90(TM) system (copyright 1990, Gaussian, Inc.),
 the Gaussian 88(TM) system (copyright 1988, Gaussian, Inc.),
 the Gaussian 86(TM) system (copyright 1986, Carnegie Mellon
 University), and the Gaussian 82(TM) system (copyright 1983,
 Carnegie Mellon University). Gaussian is a federally registered
 trademark of Gaussian, Inc.
  
 This software contains proprietary and confidential information,
 including trade secrets, belonging to Gaussian, Inc.
  
 This software is provided under written license and may be
 used, copied, transmitted, or stored only in accord with that
 written license.
  
 The following legend is applicable only to US Government
 contracts under FAR:
  
                    RESTRICTED RIGHTS LEGEND
  
 Use, reproduction and disclosure by the US Government is
 subject to restrictions as set forth in subparagraphs (a)
 and (c) of the Commercial Computer Software - Restricted
 Rights clause in FAR 52.227-19.
  
 Gaussian, Inc.
 340 Quinnipiac St., Bldg. 40, Wallingford CT 06492
  
  
 ---------------------------------------------------------------
 Warning -- This program may not be used in any manner that
 competes with the business of Gaussian, Inc. or will provide
 assistance to any competitor of Gaussian, Inc.  The licensee
 of this program is prohibited from giving any competitor of
 Gaussian, Inc. access to this program.  By using this program,
 the user acknowledges that Gaussian, Inc. is engaged in the
 business of creating and licensing software in the field of
 computational chemistry and represents and warrants to the
 licensee that it is not a competitor of Gaussian, Inc. and that
 it will not use this program in any manner prohibited above.
 ---------------------------------------------------------------
  

 Cite this work as:
 Gaussian 16, Revision A.03,
 M. J. Frisch, G. W. Trucks, H. B. Schlegel, G. E. Scuseria, 
 M. A. Robb, J. R. Cheeseman, G. Scalmani, V. Barone, 
 G. A. Petersson, H. Nakatsuji, X. Li, M. Caricato, A. V. Marenich, 
 J. Bloino, B. G. Janesko, R. Gomperts, B. Mennucci, H. P. Hratchian, 
 J. V. Ortiz, A. F. Izmaylov, J. L. Sonnenberg, D. Williams-Young, 
 F. Ding, F. Lipparini, F. Egidi, J. Goings, B. Peng, A. Petrone, 
 T. Henderson, D. Ranasinghe, V. G. Zakrzewski, J. Gao, N. Rega, 
 G. Zheng, W. Liang, M. Hada, M. Ehara, K. Toyota, R. Fukuda, 
 J. Hasegawa, M. Ishida, T. Nakajima, Y. Honda, O. Kitao, H. Nakai, 
 T. Vreven, K. Throssell, J. A. Montgomery, Jr., J. E. Peralta, 
 F. Ogliaro, M. J. Bearpark, J. J. Heyd, E. N. Brothers, K. N. Kudin, 
 V. N. Staroverov, T. A. Keith, R. Kobayashi, J. Normand, 
 K. Raghavachari, A. P. Rendell, J. C. Burant, S. S. Iyengar, 
 J. Tomasi, M. Cossi, J. M. Millam, M. Klene, C. Adamo, R. Cammi, 
 J. W. Ochterski, R. L. Martin, K. Morokuma, O. Farkas, 
 J. B. Foresman, and D. J. Fox, Gaussian, Inc., Wallingford CT, 2016.
 
 ******************************************
 Gaussian 16:  ES64L-G16RevA.03 25-Dec-2016
                11-May-2022 
 ******************************************
 %chk=w5s4.chk
 %nproc=28
 Will use up to   28 processors via shared memory.
 %mem=500gb
 ------------------------
 #p MP2(full) SDDAll freq
 ------------------------
 1/10=4,30=1,38=1/1,3;
 2/12=2,17=6,18=5,40=1/2;
 3/5=17,6=6,11=9,25=1,30=1,71=2,140=1/1,2,3;
 4//1;
 5/5=2,38=5,98=1/2;
 8/6=3,8=1,10=90,19=11/1;
 9/15=3,16=-3/6;
 11/6=1,8=1,15=11,17=11,24=-1,27=1,28=-2,29=300,32=6,42=3/1,2,10;
 10/6=2,21=1/2;
 8/6=4,8=1,10=90,19=11/11,4;
 10/5=1,20=4/2;
 11/12=2,14=11,16=1,28=-2,42=3/2,10,12;
 6/7=2,8=2,9=2,10=2/1;
 7/8=1,10=1,12=2,25=1,44=2/1,2,3,16;
 1/10=4,30=1/3;
 99//99;
 Leave Link    1 at Wed May 11 21:29:40 2022, MaxMem= 67108864000 cpu:               2.1 elap:               0.1
 (Enter /cm/shared/apps/gaussian/intel/EM64T/SSE4_2-enabled/binary//g16/l101.exe)
 ----------------------------------------------------------------------
 file 'w5s4.log' Now we use Def2-QZVPPD, but it was opt at: ---' #p ZOR
 A-SR+SO PBE QZ4P'---
 ----------------------------------------------------------------------
 Symbolic Z-matrix:
 Charge =  2 Multiplicity = 1
 Hg(Fragment=1)       -0.63615   1.23486   1.44664 
 O(Fragment=2)         1.21689   0.51029   1.52937 
 H(Fragment=2)         1.88397   0.74317   0.72341 
 H(Fragment=2)         1.35854  -0.44782   1.99146 
 O(Fragment=2)        -2.49578   2.00529   1.46839 
 H(Fragment=2)        -2.90156   3.01434   1.99269 
 H(Fragment=2)        -3.06392   1.68402   0.74422 
 O(Fragment=2)         1.48151  -1.65753   2.71033 
 H(Fragment=2)         2.04989  -1.6716    3.50096 
 H(Fragment=2)         1.62136  -2.50458   2.25147 
 O(Fragment=2)        -3.2879    3.99769   2.58878 
 H(Fragment=2)        -3.53947   4.76918   2.04465 
 H(Fragment=2)        -3.99568   3.84333   3.24471 
 O(Fragment=2)         2.73512   1.17967  -0.31964 
 H(Fragment=2)         3.53426   1.68434  -0.08493 
 H(Fragment=2)         2.98669   0.58308  -1.04657 
 
 ITRead=  0  0  0  0  0  0  0  0  0  0  0  0  0  0  0  0
 MicOpt= -1 -1 -1 -1 -1 -1 -1 -1 -1 -1 -1 -1 -1 -1 -1 -1
 NAtoms=     16 NQM=       16 NQMF=       0 NMMI=      0 NMMIF=      0
                NMic=       0 NMicF=      0.
                    Isotopes and Nuclear Properties:
 (Nuclear quadrupole moments (NQMom) in fm**2, nuclear magnetic moments (NMagM)
  in nuclear magnetons)

  Atom         1           2           3           4           5           6           7           8           9          10
 IAtWgt=         202          16           1           1          16           1           1          16           1           1
 AtmWgt= 201.9706000  15.9949146   1.0078250   1.0078250  15.9949146   1.0078250   1.0078250  15.9949146   1.0078250   1.0078250
 NucSpn=           0           0           1           1           0           1           1           0           1           1
 AtZEff=  -0.0000000  -0.0000000  -0.0000000  -0.0000000  -0.0000000  -0.0000000  -0.0000000  -0.0000000  -0.0000000  -0.0000000
 NQMom=    0.0000000   0.0000000   0.0000000   0.0000000   0.0000000   0.0000000   0.0000000   0.0000000   0.0000000   0.0000000
 NMagM=    0.0000000   0.0000000   2.7928460   2.7928460   0.0000000   2.7928460   2.7928460   0.0000000   2.7928460   2.7928460
 AtZNuc=  80.0000000   8.0000000   1.0000000   1.0000000   8.0000000   1.0000000   1.0000000   8.0000000   1.0000000   1.0000000

  Atom        11          12          13          14          15          16
 IAtWgt=          16           1           1          16           1           1
 AtmWgt=  15.9949146   1.0078250   1.0078250  15.9949146   1.0078250   1.0078250
 NucSpn=           0           1           1           0           1           1
 AtZEff=  -0.0000000  -0.0000000  -0.0000000  -0.0000000  -0.0000000  -0.0000000
 NQMom=    0.0000000   0.0000000   0.0000000   0.0000000   0.0000000   0.0000000
 NMagM=    0.0000000   2.7928460   2.7928460   0.0000000   2.7928460   2.7928460
 AtZNuc=   8.0000000   1.0000000   1.0000000   8.0000000   1.0000000   1.0000000
 Leave Link  101 at Wed May 11 21:29:41 2022, MaxMem= 67108864000 cpu:               2.0 elap:               0.1
 (Enter /cm/shared/apps/gaussian/intel/EM64T/SSE4_2-enabled/binary//g16/l103.exe)

 GradGradGradGradGradGradGradGradGradGradGradGradGradGradGradGradGradGrad
 Berny optimization.
 Initialization pass.
 Trust Radius=3.00D-01 FncErr=1.00D-07 GrdErr=1.00D-07 EigMax=2.50D+02 EigMin=1.00D-04
 Number of steps in this run=      2 maximum allowed number of steps=      2.
 GradGradGradGradGradGradGradGradGradGradGradGradGradGradGradGradGradGrad

 Leave Link  103 at Wed May 11 21:29:41 2022, MaxMem= 67108864000 cpu:               0.7 elap:               0.0
 (Enter /cm/shared/apps/gaussian/intel/EM64T/SSE4_2-enabled/binary//g16/l202.exe)
                          Input orientation:                          
 ---------------------------------------------------------------------
 Center     Atomic      Atomic             Coordinates (Angstroms)
 Number     Number       Type             X           Y           Z
 ---------------------------------------------------------------------
      1         80           0       -0.636150    1.234858    1.446637
      2          8           0        1.216889    0.510294    1.529373
      3          1           0        1.883966    0.743165    0.723411
      4          1           0        1.358544   -0.447817    1.991457
      5          8           0       -2.495783    2.005290    1.468385
      6          1           0       -2.901563    3.014341    1.992686
      7          1           0       -3.063924    1.684020    0.744222
      8          8           0        1.481505   -1.657534    2.710330
      9          1           0        2.049893   -1.671595    3.500957
     10          1           0        1.621362   -2.504580    2.251472
     11          8           0       -3.287901    3.997687    2.588777
     12          1           0       -3.539471    4.769177    2.044652
     13          1           0       -3.995677    3.843327    3.244711
     14          8           0        2.735123    1.179672   -0.319638
     15          1           0        3.534263    1.684337   -0.084928
     16          1           0        2.986693    0.583082   -1.046568
 ---------------------------------------------------------------------
                    Distance matrix (angstroms):
                    1          2          3          4          5
     1  Hg   0.000000
     2  O    1.991379   0.000000
     3  H    2.667546   1.071819   0.000000
     4  H    2.665901   1.073110   1.817264   0.000000
     5  O    2.013026   4.002832   4.618457   4.598606   0.000000
     6  H    2.932034   4.842165   5.447071   5.489540   1.207366
     7  H    2.566948   4.507711   5.036592   5.065427   0.974890
     8  O    3.800962   2.482773   3.142161   1.412555   5.547750
     9  H    4.458983   3.056416   3.684204   2.062568   6.189831
    10  H    4.441567   3.126418   3.598858   2.089726   6.156544
    11  O    3.996185   5.794599   6.389031   6.458231   2.419168
    12  H    4.612841   6.405198   6.882450   7.156145   3.010056
    13  H    4.617749   6.420462   7.109020   6.975116   2.963679
    14  O    3.806344   2.484340   1.415259   3.144018   5.589369
    15  H    4.465430   3.058524   2.064630   3.686626   6.235162
    16  H    4.445883   3.126176   2.091521   3.597668   6.197194
                    6          7          8          9         10
     6  H    0.000000
     7  H    1.831605   0.000000
     8  O    6.446139   5.974319   0.000000
     9  H    6.982105   6.709014   0.973835   0.000000
    10  H    7.140190   6.462823   0.973446   1.561639   0.000000
    11  O    1.213075   2.967424   7.398887   7.839954   8.154392
    12  H    1.867907   3.381635   8.182661   8.651321   8.921015
    13  H    1.857921   3.432669   7.781038   8.187121   8.534259
    14  O    6.362789   5.917357   4.336128   4.816244   4.628691
    15  H    6.892405   6.650080   4.816159   5.130712   5.163815
    16  H    7.058303   6.405385   4.626039   5.161506   4.719624
                   11         12         13         14         15
    11  O    0.000000
    12  H    0.977014   0.000000
    13  H    0.977253   1.582866   0.000000
    14  O    7.257886   7.605586   8.068662   0.000000
    15  H    7.683893   8.005564   8.511623   0.973858   0.000000
    16  H    8.015347   8.346847   8.820304   0.973465   1.561200
                   16
    16  H    0.000000
 Stoichiometry    H10HgO5(2+)
 Framework group  C1[X(H10HgO5)]
 Deg. of freedom    42
 Full point group                 C1      NOp   1
 Largest Abelian subgroup         C1      NOp   1
 Largest concise Abelian subgroup C1      NOp   1
                         Standard orientation:                         
 ---------------------------------------------------------------------
 Center     Atomic      Atomic             Coordinates (Angstroms)
 Number     Number       Type             X           Y           Z
 ---------------------------------------------------------------------
      1         80           0       -0.182963   -0.027413   -0.135241
      2          8           0        1.728164    0.044928    0.419692
      3          1           0        2.258561    0.965221    0.276390
      4          1           0        2.311092   -0.850716    0.321803
      5          8           0       -2.139397   -0.143464   -0.594775
      6          1           0       -3.104137    0.024556    0.111467
      7          1           0       -2.327456   -0.042108   -1.545970
      8          8           0        2.982435   -2.092414    0.268911
      9          1           0        3.347223   -2.458065    1.094491
     10          1           0        3.630056   -2.285853   -0.431636
     11          8           0       -4.048632    0.132978    0.864943
     12          1           0       -4.607049    0.927250    0.756041
     13          1           0       -4.635127   -0.646608    0.922318
     14          8           0        2.860156    2.240494    0.155066
     15          1           0        3.204133    2.668866    0.959167
     16          1           0        3.497927    2.430296   -0.555467
 ---------------------------------------------------------------------
 Rotational constants (GHZ):           2.3985929           0.6233520           0.5280061
 Leave Link  202 at Wed May 11 21:29:41 2022, MaxMem= 67108864000 cpu:               0.3 elap:               0.0
 (Enter /cm/shared/apps/gaussian/intel/EM64T/SSE4_2-enabled/binary//g16/l301.exe)
 Standard basis: SDDAll (6D, 10F)
 Ernie: Thresh=  0.10000D-02 Tol=  0.10000D-05 Strict=F.
 There are   114 symmetry adapted cartesian basis functions of A   symmetry.
 There are   114 symmetry adapted basis functions of A   symmetry.
   114 basis functions,   200 primitive gaussians,   114 cartesian basis functions
    29 alpha electrons       29 beta electrons
       nuclear repulsion energy       259.0056629702 Hartrees.
 IExCor=    0 DFT=F Ex=HF Corr=None ExCW=0 ScaHFX=  1.000000
 ScaDFX=  1.000000  1.000000  1.000000  1.000000 ScalE2=  1.000000  1.000000
 IRadAn=      5 IRanWt=     -1 IRanGd=            0 ICorTp=0 IEmpDi=  4
 NAtoms=   16 NActive=   16 NUniq=   16 SFac= 1.00D+00 NAtFMM=   60 NAOKFM=F Big=F
 Integral buffers will be    131072 words long.
 Raffenetti 1 integral format.
 Two-electron integral symmetry is turned on.
 Leave Link  301 at Wed May 11 21:29:41 2022, MaxMem= 67108864000 cpu:               2.7 elap:               0.1
 (Enter /cm/shared/apps/gaussian/intel/EM64T/SSE4_2-enabled/binary//g16/l302.exe)
 NPDir=0 NMtPBC=     1 NCelOv=     1 NCel=       1 NClECP=     1 NCelD=      1
         NCelK=      1 NCelE2=     1 NClLst=     1 CellRange=     0.0.
 One-electron integrals computed using PRISM.
 One-electron integral symmetry used in STVInt
   1 Symmetry operations used in ECPInt.
 ECPInt:  NShTT=    1770 NPrTT=    5742 LenC2=    1736 LenP2D=    4417.
 LDataN:  DoStor=T MaxTD1= 7 Len=  274
 NBasis=   114 RedAO= T EigKep=  3.83D-04  NBF=   114
 NBsUse=   114 1.00D-06 EigRej= -1.00D+00 NBFU=   114
 Leave Link  302 at Wed May 11 21:29:41 2022, MaxMem= 67108864000 cpu:               6.7 elap:               0.3
 (Enter /cm/shared/apps/gaussian/intel/EM64T/SSE4_2-enabled/binary//g16/l303.exe)
 DipDrv:  MaxL=1.
 Leave Link  303 at Wed May 11 21:29:41 2022, MaxMem= 67108864000 cpu:               2.8 elap:               0.1
 (Enter /cm/shared/apps/gaussian/intel/EM64T/SSE4_2-enabled/binary//g16/l401.exe)
 ExpMin= 2.00D-02 ExpMax= 4.71D+01 ExpMxC= 4.71D+01 IAcc=3 IRadAn=         5 AccDes= 0.00D+00
 Harris functional with IExCor=  205 and IRadAn=       5 diagonalized for initial guess.
 HarFok:  IExCor=  205 AccDes= 0.00D+00 IRadAn=         5 IDoV= 1 UseB2=F ITyADJ=14
 ICtDFT=  3500011 ScaDFX=  1.000000  1.000000  1.000000  1.000000
 Defaulting to unpruned grid for atomic number  80.
 FoFCou: FMM=F IPFlag=           0 FMFlag=      100000 FMFlg1=           0
         NFxFlg=           0 DoJE=T BraDBF=F KetDBF=T FulRan=T
         wScrn=  0.000000 ICntrl=       500 IOpCl=  0 I1Cent=   200000004 NGrid=           0
         NMat0=    1 NMatS0=      1 NMatT0=    0 NMatD0=    1 NMtDS0=    0 NMtDT0=    0
 Petite list used in FoFCou.
 Harris En= -239.836666381895    
 JPrj=0 DoOrth=F DoCkMO=F.
 Leave Link  401 at Wed May 11 21:29:41 2022, MaxMem= 67108864000 cpu:               6.9 elap:               0.3
 (Enter /cm/shared/apps/gaussian/intel/EM64T/SSE4_2-enabled/binary//g16/l502.exe)
 Integral symmetry usage will be decided dynamically.
 Closed shell SCF:
 Using DIIS extrapolation, IDIIS=  1040.
 NGot= 67108864000 LenX= 67108833323 LenY= 67108819886
 Requested convergence on RMS density matrix=1.00D-08 within 128 cycles.
 Requested convergence on MAX density matrix=1.00D-06.
 Requested convergence on             energy=1.00D-06.
 No special actions if energy rises.
 Fock matrices will be formed incrementally for  20 cycles.

 Cycle   1  Pass 0  IDiag  1:
 FoFJK:  IHMeth= 1 ICntrl=       0 DoSepK=F KAlg= 0 I1Cent=           0 FoldK=F
 IRaf= 930000000 NMat=       1 IRICut=       1 DoRegI=T DoRafI=F ISym2E= 0 IDoP0=0 IntGTp=1.
 FoFCou: FMM=F IPFlag=           0 FMFlag=      100000 FMFlg1=           0
         NFxFlg=           0 DoJE=F BraDBF=F KetDBF=F FulRan=T
         wScrn=  0.000000 ICntrl=         0 IOpCl=  0 I1Cent=           0 NGrid=           0
         NMat0=    1 NMatS0=      1 NMatT0=    0 NMatD0=    1 NMtDS0=    0 NMtDT0=    0
 Symmetry not used in FoFCou.
 E= -236.044010504310    
 DIIS: error= 5.45D-02 at cycle   1 NSaved=   1.
 NSaved= 1 IEnMin= 1 EnMin= -236.044010504310     IErMin= 1 ErrMin= 5.45D-02
 ErrMax= 5.45D-02  0.00D+00 EMaxC= 1.00D-01 BMatC= 5.69D-01 BMatP= 5.69D-01
 IDIUse=3 WtCom= 4.55D-01 WtEn= 5.45D-01
 Coeff-Com:  0.100D+01
 Coeff-En:   0.100D+01
 Coeff:      0.100D+01
 Gap=     0.694 Goal=   None    Shift=    0.000
 GapD=    0.694 DampG=2.000 DampE=0.250 DampFc=0.5000 IDamp=-1.
 Damping current iteration by 5.00D-01
 RMSDP=8.83D-03 MaxDP=2.55D-01              OVMax= 2.39D-01

 Cycle   2  Pass 0  IDiag  1:
 RMSU=  4.36D-03    CP:  1.02D+00
 E= -236.290925251288     Delta-E=       -0.246914746978 Rises=F Damp=T
 DIIS: error= 1.47D-02 at cycle   2 NSaved=   2.
 NSaved= 2 IEnMin= 2 EnMin= -236.290925251288     IErMin= 2 ErrMin= 1.47D-02
 ErrMax= 1.47D-02  0.00D+00 EMaxC= 1.00D-01 BMatC= 3.59D-02 BMatP= 5.69D-01
 IDIUse=3 WtCom= 8.53D-01 WtEn= 1.47D-01
 Coeff-Com: -0.236D+00 0.124D+01
 Coeff-En:   0.000D+00 0.100D+01
 Coeff:     -0.201D+00 0.120D+01
 Gap=     0.556 Goal=   None    Shift=    0.000
 RMSDP=2.75D-03 MaxDP=6.87D-02 DE=-2.47D-01 OVMax= 6.69D-02

 Cycle   3  Pass 0  IDiag  1:
 RMSU=  2.39D-03    CP:  1.01D+00  1.31D+00
 E= -236.499248411994     Delta-E=       -0.208323160706 Rises=F Damp=F
 DIIS: error= 3.87D-03 at cycle   3 NSaved=   3.
 NSaved= 3 IEnMin= 3 EnMin= -236.499248411994     IErMin= 3 ErrMin= 3.87D-03
 ErrMax= 3.87D-03  0.00D+00 EMaxC= 1.00D-01 BMatC= 3.16D-03 BMatP= 3.59D-02
 IDIUse=3 WtCom= 9.61D-01 WtEn= 3.87D-02
 Coeff-Com:  0.728D-01-0.220D+00 0.115D+01
 Coeff-En:   0.000D+00 0.000D+00 0.100D+01
 Coeff:      0.700D-01-0.212D+00 0.114D+01
 Gap=     0.564 Goal=   None    Shift=    0.000
 RMSDP=1.15D-03 MaxDP=3.62D-02 DE=-2.08D-01 OVMax= 2.20D-02

 Cycle   4  Pass 0  IDiag  1:
 RMSU=  5.68D-04    CP:  1.00D+00  1.23D+00  1.37D+00
 E= -236.502973132541     Delta-E=       -0.003724720547 Rises=F Damp=F
 DIIS: error= 2.28D-03 at cycle   4 NSaved=   4.
 NSaved= 4 IEnMin= 4 EnMin= -236.502973132541     IErMin= 4 ErrMin= 2.28D-03
 ErrMax= 2.28D-03  0.00D+00 EMaxC= 1.00D-01 BMatC= 5.10D-04 BMatP= 3.16D-03
 IDIUse=3 WtCom= 9.77D-01 WtEn= 2.28D-02
 Coeff-Com:  0.380D-01-0.151D+00 0.350D+00 0.763D+00
 Coeff-En:   0.000D+00 0.000D+00 0.000D+00 0.100D+01
 Coeff:      0.372D-01-0.148D+00 0.342D+00 0.768D+00
 Gap=     0.560 Goal=   None    Shift=    0.000
 RMSDP=3.43D-04 MaxDP=8.39D-03 DE=-3.72D-03 OVMax= 1.13D-02

 Cycle   5  Pass 0  IDiag  1:
 RMSU=  2.12D-04    CP:  1.00D+00  1.24D+00  1.47D+00  1.12D+00
 E= -236.503736298261     Delta-E=       -0.000763165721 Rises=F Damp=F
 DIIS: error= 6.30D-04 at cycle   5 NSaved=   5.
 NSaved= 5 IEnMin= 5 EnMin= -236.503736298261     IErMin= 5 ErrMin= 6.30D-04
 ErrMax= 6.30D-04  0.00D+00 EMaxC= 1.00D-01 BMatC= 4.40D-05 BMatP= 5.10D-04
 IDIUse=3 WtCom= 9.94D-01 WtEn= 6.30D-03
 Coeff-Com: -0.232D-01 0.768D-01-0.208D+00-0.214D+00 0.137D+01
 Coeff-En:   0.000D+00 0.000D+00 0.000D+00 0.000D+00 0.100D+01
 Coeff:     -0.231D-01 0.763D-01-0.207D+00-0.213D+00 0.137D+01
 Gap=     0.557 Goal=   None    Shift=    0.000
 RMSDP=2.26D-04 MaxDP=6.17D-03 DE=-7.63D-04 OVMax= 6.62D-03

 Cycle   6  Pass 0  IDiag  1:
 RMSU=  6.74D-05    CP:  1.00D+00  1.24D+00  1.53D+00  1.32D+00  1.49D+00
 E= -236.503892742894     Delta-E=       -0.000156444633 Rises=F Damp=F
 DIIS: error= 1.94D-04 at cycle   6 NSaved=   6.
 NSaved= 6 IEnMin= 6 EnMin= -236.503892742894     IErMin= 6 ErrMin= 1.94D-04
 ErrMax= 1.94D-04  0.00D+00 EMaxC= 1.00D-01 BMatC= 8.60D-06 BMatP= 4.40D-05
 IDIUse=3 WtCom= 9.98D-01 WtEn= 1.94D-03
 Coeff-Com: -0.892D-02 0.325D-01-0.105D+00-0.123D+00 0.403D+00 0.801D+00
 Coeff-En:   0.000D+00 0.000D+00 0.000D+00 0.000D+00 0.000D+00 0.100D+01
 Coeff:     -0.890D-02 0.325D-01-0.105D+00-0.122D+00 0.402D+00 0.801D+00
 Gap=     0.557 Goal=   None    Shift=    0.000
 RMSDP=6.65D-05 MaxDP=1.58D-03 DE=-1.56D-04 OVMax= 1.76D-03

 Cycle   7  Pass 0  IDiag  1:
 RMSU=  1.75D-05    CP:  1.00D+00  1.24D+00  1.55D+00  1.37D+00  1.61D+00
                    CP:  1.22D+00
 E= -236.503906747950     Delta-E=       -0.000014005056 Rises=F Damp=F
 DIIS: error= 5.33D-05 at cycle   7 NSaved=   7.
 NSaved= 7 IEnMin= 7 EnMin= -236.503906747950     IErMin= 7 ErrMin= 5.33D-05
 ErrMax= 5.33D-05  0.00D+00 EMaxC= 1.00D-01 BMatC= 6.42D-07 BMatP= 8.60D-06
 IDIUse=1 WtCom= 1.00D+00 WtEn= 0.00D+00
 Coeff-Com:  0.307D-02-0.779D-02 0.188D-01 0.259D-01-0.170D+00-0.226D-01
 Coeff-Com:  0.115D+01
 Coeff:      0.307D-02-0.779D-02 0.188D-01 0.259D-01-0.170D+00-0.226D-01
 Coeff:      0.115D+01
 Gap=     0.557 Goal=   None    Shift=    0.000
 RMSDP=2.33D-05 MaxDP=4.90D-04 DE=-1.40D-05 OVMax= 5.76D-04

 Cycle   8  Pass 0  IDiag  1:
 RMSU=  5.33D-06    CP:  1.00D+00  1.24D+00  1.56D+00  1.39D+00  1.66D+00
                    CP:  1.37D+00  1.26D+00
 E= -236.503908022428     Delta-E=       -0.000001274478 Rises=F Damp=F
 DIIS: error= 9.57D-06 at cycle   8 NSaved=   8.
 NSaved= 8 IEnMin= 8 EnMin= -236.503908022428     IErMin= 8 ErrMin= 9.57D-06
 ErrMax= 9.57D-06  0.00D+00 EMaxC= 1.00D-01 BMatC= 1.70D-08 BMatP= 6.42D-07
 IDIUse=1 WtCom= 1.00D+00 WtEn= 0.00D+00
 Coeff-Com: -0.382D-03 0.652D-03 0.438D-03-0.276D-02 0.225D-01-0.800D-02
 Coeff-Com: -0.227D+00 0.121D+01
 Coeff:     -0.382D-03 0.652D-03 0.438D-03-0.276D-02 0.225D-01-0.800D-02
 Coeff:     -0.227D+00 0.121D+01
 Gap=     0.557 Goal=   None    Shift=    0.000
 RMSDP=2.52D-06 MaxDP=6.50D-05 DE=-1.27D-06 OVMax= 5.13D-05

 Initial convergence to 1.0D-05 achieved.  Increase integral accuracy.
 Cycle   9  Pass 1  IDiag  1:
 E= -236.503908052433     Delta-E=       -0.000000030005 Rises=F Damp=F
 DIIS: error= 3.51D-06 at cycle   1 NSaved=   1.
 NSaved= 1 IEnMin= 1 EnMin= -236.503908052433     IErMin= 1 ErrMin= 3.51D-06
 ErrMax= 3.51D-06  0.00D+00 EMaxC= 1.00D-01 BMatC= 2.37D-09 BMatP= 2.37D-09
 IDIUse=1 WtCom= 1.00D+00 WtEn= 0.00D+00
 Coeff-Com:  0.100D+01
 Coeff:      0.100D+01
 Gap=     0.557 Goal=   None    Shift=    0.000
 RMSDP=2.52D-06 MaxDP=6.50D-05 DE=-3.00D-08 OVMax= 1.94D-05

 Cycle  10  Pass 1  IDiag  1:
 RMSU=  5.39D-07    CP:  1.00D+00
 E= -236.503908054682     Delta-E=       -0.000000002249 Rises=F Damp=F
 DIIS: error= 2.44D-06 at cycle   2 NSaved=   2.
 NSaved= 2 IEnMin= 2 EnMin= -236.503908054682     IErMin= 2 ErrMin= 2.44D-06
 ErrMax= 2.44D-06  0.00D+00 EMaxC= 1.00D-01 BMatC= 9.89D-10 BMatP= 2.37D-09
 IDIUse=1 WtCom= 1.00D+00 WtEn= 0.00D+00
 Coeff-Com:  0.367D+00 0.633D+00
 Coeff:      0.367D+00 0.633D+00
 Gap=     0.557 Goal=   None    Shift=    0.000
 RMSDP=2.11D-07 MaxDP=5.56D-06 DE=-2.25D-09 OVMax= 5.77D-06

 Cycle  11  Pass 1  IDiag  1:
 RMSU=  2.10D-07    CP:  1.00D+00  9.68D-01
 E= -236.503908055597     Delta-E=       -0.000000000915 Rises=F Damp=F
 DIIS: error= 6.02D-07 at cycle   3 NSaved=   3.
 NSaved= 3 IEnMin= 3 EnMin= -236.503908055597     IErMin= 3 ErrMin= 6.02D-07
 ErrMax= 6.02D-07  0.00D+00 EMaxC= 1.00D-01 BMatC= 7.33D-11 BMatP= 9.89D-10
 IDIUse=1 WtCom= 1.00D+00 WtEn= 0.00D+00
 Coeff-Com: -0.336D+00-0.296D+00 0.163D+01
 Coeff:     -0.336D+00-0.296D+00 0.163D+01
 Gap=     0.557 Goal=   None    Shift=    0.000
 RMSDP=2.30D-07 MaxDP=4.67D-06 DE=-9.15D-10 OVMax= 9.73D-06

 Cycle  12  Pass 1  IDiag  1:
 RMSU=  6.35D-08    CP:  1.00D+00  1.28D+00  1.68D+00
 E= -236.503908055837     Delta-E=       -0.000000000240 Rises=F Damp=F
 DIIS: error= 8.19D-08 at cycle   4 NSaved=   4.
 NSaved= 4 IEnMin= 4 EnMin= -236.503908055837     IErMin= 4 ErrMin= 8.19D-08
 ErrMax= 8.19D-08  0.00D+00 EMaxC= 1.00D-01 BMatC= 2.03D-12 BMatP= 7.33D-11
 IDIUse=1 WtCom= 1.00D+00 WtEn= 0.00D+00
 Coeff-Com: -0.583D-01-0.584D-01 0.218D+00 0.898D+00
 Coeff:     -0.583D-01-0.584D-01 0.218D+00 0.898D+00
 Gap=     0.557 Goal=   None    Shift=    0.000
 RMSDP=2.78D-08 MaxDP=5.26D-07 DE=-2.40D-10 OVMax= 1.15D-06

 Cycle  13  Pass 1  IDiag  1:
 RMSU=  1.24D-08    CP:  1.00D+00  1.30D+00  1.75D+00  1.26D+00
 E= -236.503908055844     Delta-E=       -0.000000000007 Rises=F Damp=F
 DIIS: error= 3.83D-08 at cycle   5 NSaved=   5.
 NSaved= 5 IEnMin= 5 EnMin= -236.503908055844     IErMin= 5 ErrMin= 3.83D-08
 ErrMax= 3.83D-08  0.00D+00 EMaxC= 1.00D-01 BMatC= 3.89D-13 BMatP= 2.03D-12
 IDIUse=1 WtCom= 1.00D+00 WtEn= 0.00D+00
 Coeff-Com:  0.680D-01 0.618D-01-0.329D+00-0.257D-02 0.120D+01
 Coeff:      0.680D-01 0.618D-01-0.329D+00-0.257D-02 0.120D+01
 Gap=     0.557 Goal=   None    Shift=    0.000
 RMSDP=1.74D-08 MaxDP=4.14D-07 DE=-7.16D-12 OVMax= 7.09D-07

 Cycle  14  Pass 1  IDiag  1:
 RMSU=  4.94D-09    CP:  1.00D+00  1.30D+00  1.78D+00  1.49D+00  1.34D+00
 E= -236.503908055846     Delta-E=       -0.000000000002 Rises=F Damp=F
 DIIS: error= 1.01D-08 at cycle   6 NSaved=   6.
 NSaved= 6 IEnMin= 6 EnMin= -236.503908055846     IErMin= 6 ErrMin= 1.01D-08
 ErrMax= 1.01D-08  0.00D+00 EMaxC= 1.00D-01 BMatC= 2.39D-14 BMatP= 3.89D-13
 IDIUse=1 WtCom= 1.00D+00 WtEn= 0.00D+00
 Coeff-Com:  0.136D-02 0.221D-02-0.159D-02-0.791D-01-0.530D-02 0.108D+01
 Coeff:      0.136D-02 0.221D-02-0.159D-02-0.791D-01-0.530D-02 0.108D+01
 Gap=     0.557 Goal=   None    Shift=    0.000
 RMSDP=3.51D-09 MaxDP=7.87D-08 DE=-2.22D-12 OVMax= 1.62D-07

 SCF Done:  E(RHF) =  -236.503908056     A.U. after   14 cycles
            NFock= 14  Conv=0.35D-08     -V/T= 2.9963
 KE= 1.184731808474D+02 PE=-1.023400834353D+03 EE= 4.094180824799D+02
 Leave Link  502 at Wed May 11 21:29:43 2022, MaxMem= 67108864000 cpu:              53.3 elap:               1.9
 (Enter /cm/shared/apps/gaussian/intel/EM64T/SSE4_2-enabled/binary//g16/l801.exe)
 Range of M.O.s used for correlation:     1   114
 NBasis=   114 NAE=    29 NBE=    29 NFC=     0 NFV=     0
 NROrb=    114 NOA=    29 NOB=    29 NVA=    85 NVB=    85

 **** Warning!!: The largest alpha MO coefficient is  0.28653276D+02

 Leave Link  801 at Wed May 11 21:29:43 2022, MaxMem= 67108864000 cpu:               0.9 elap:               0.1
 (Enter /cm/shared/apps/gaussian/intel/EM64T/SSE4_2-enabled/binary//g16/l906.exe)
 FulOut=F Deriv=T AODrv=T NAtomX=    16
   MMem=           0  MDisk=          29 MDiskD=          29
  W3Min=      376884 MinDsk=     1164521 NBas6D=         114
 NBas2D=        6660    NTT=        6555    LW2=     3308096
    MDV= 67108676657 MDiskM=     8175764 NBas2p=        6340
 Disk-based method using ON**2 memory for 29 occupieds at a time.
 Permanent disk used for amplitudes=     7525645 words.
 Estimated scratch disk usage=    80493320 words.
 IMap=   1   2   3   4   5   6   7   8   9  10  11  12  13  14  15  16  17  18  19  20
 IMap=  21  22  23  24  25  26  27  28  29
 Actual    scratch disk usage=    73420040 words.
 JobTyp=1 Pass  1:  I=   1 to  29 NPSUse= 28 ParTrn=T ParDer=T DoDerP=T.
 (rs|ai) integrals will be sorted in core.
 Spin components of T(2) and E(2):
     alpha-alpha T2 =       0.3126061312D-01 E2=     -0.1007134168D+00
     alpha-beta  T2 =       0.1809502711D+00 E2=     -0.5903121824D+00
     beta-beta   T2 =       0.3126061312D-01 E2=     -0.1007134168D+00
 The integrals were generated   1 times.
 ANorm=    0.1115110531D+01
 E2 =    -0.7917390160D+00 EUMP2 =    -0.23729564707187D+03
 Leave Link  906 at Wed May 11 21:29:54 2022, MaxMem= 67108864000 cpu:             283.3 elap:              10.1
 (Enter /cm/shared/apps/gaussian/intel/EM64T/SSE4_2-enabled/binary//g16/l1101.exe)
 Using compressed Sx but separate Hx and Fx, NAtomX=    16.
 Will process     17 centers per pass.
   1 Symmetry operations used in ECPInt.
 ECPInt:  NShTT=    1770 NPrTT=    5742 LenC2=    1736 LenP2D=    4417.
 LDataN:  DoStor=T MaxTD1= 8 Len=  415
 Leave Link 1101 at Wed May 11 21:29:54 2022, MaxMem= 67108864000 cpu:              12.5 elap:               0.5
 (Enter /cm/shared/apps/gaussian/intel/EM64T/SSE4_2-enabled/binary//g16/l1102.exe)
 Leave Link 1102 at Wed May 11 21:29:54 2022, MaxMem= 67108864000 cpu:               1.0 elap:               0.1
 (Enter /cm/shared/apps/gaussian/intel/EM64T/SSE4_2-enabled/binary//g16/l1110.exe)
 Forming Gx(P) for the SCF density, NAtomX=    16.
 Integral derivatives from FoFJK, PRISM(SPDF).
 Do as many integral derivatives as possible in FoFJK.
 G2DrvN: MDV=   67108862744.
 G2DrvN: will do    17 centers at a time, making    1 passes.
 Calling FoFCou, ICntrl=  3107 FMM=F I1Cent=   0 AccDes= 0.00D+00.
 FoFJK:  IHMeth= 1 ICntrl=    3107 DoSepK=F KAlg= 0 I1Cent=           0 FoldK=F
 IRaf=         0 NMat=       1 IRICut=       1 DoRegI=T DoRafI=F ISym2E= 0 IDoP0=0 IntGTp=1.
 FoFCou: FMM=F IPFlag=           0 FMFlag=      100000 FMFlg1=           0
         NFxFlg=           0 DoJE=F BraDBF=F KetDBF=F FulRan=T
         wScrn=  0.000000 ICntrl=      3107 IOpCl=  0 I1Cent=           0 NGrid=           0
         NMat0=    1 NMatS0=      1 NMatT0=    0 NMatD0=    1 NMtDS0=    0 NMtDT0=    0
 Symmetry not used in FoFCou.
 End of G2Drv F.D. properties file   721 does not exist.
 End of G2Drv F.D. properties file   722 does not exist.
 End of G2Drv F.D. properties file   788 does not exist.
 Leave Link 1110 at Wed May 11 21:29:55 2022, MaxMem= 67108864000 cpu:              10.4 elap:               0.4
 (Enter /cm/shared/apps/gaussian/intel/EM64T/SSE4_2-enabled/binary//g16/l1002.exe)
 Minotr:  Closed shell wavefunction.
          IDoAtm=1111111111111111
          Direct CPHF calculation.
          Differentiating once with respect to electric field.
                with respect to dipole field.
          Differentiating once with respect to nuclear coordinates.
          Requested convergence is 1.0D-08 RMS, and 1.0D-07 maximum.
          Secondary convergence is 1.0D-12 RMS, and 1.0D-12 maximum.
          NewPWx=T KeepS1=T KeepF1=T KeepIn=T MapXYZ=F SortEE=F KeepMc=T.
 Keep R1 ints in memory in canonical form, NReq=27433127.
 FoFCou: FMM=F IPFlag=           0 FMFlag=           0 FMFlg1=           0
         NFxFlg=           0 DoJE=F BraDBF=F KetDBF=F FulRan=T
         wScrn=  0.000000 ICntrl=       600 IOpCl=  0 I1Cent=           0 NGrid=           0
         NMat0=    1 NMatS0=   6555 NMatT0=    0 NMatD0=    1 NMtDS0=    0 NMtDT0=    0
 Symmetry not used in FoFCou.
 Two-electron integral symmetry not used.
          MDV=   67108864000 using IRadAn=       1.
          Solving linear equations simultaneously, MaxMat=       0.
          There are    51 degrees of freedom in the 1st order CPHF.  IDoFFX=6 NUNeed=    51.
     48 vectors produced by pass  0 Test12= 4.83D-15 1.96D-09 XBig12= 1.12D+01 1.23D+00.
 AX will form    48 AO Fock derivatives at one time.
     48 vectors produced by pass  1 Test12= 4.83D-15 1.96D-09 XBig12= 1.89D-01 7.80D-02.
     48 vectors produced by pass  2 Test12= 4.83D-15 1.96D-09 XBig12= 2.38D-03 9.60D-03.
     48 vectors produced by pass  3 Test12= 4.83D-15 1.96D-09 XBig12= 1.44D-05 6.86D-04.
     48 vectors produced by pass  4 Test12= 4.83D-15 1.96D-09 XBig12= 8.95D-08 8.09D-05.
     48 vectors produced by pass  5 Test12= 4.83D-15 1.96D-09 XBig12= 6.47D-10 4.63D-06.
     30 vectors produced by pass  6 Test12= 4.83D-15 1.96D-09 XBig12= 3.30D-12 2.92D-07.
      4 vectors produced by pass  7 Test12= 4.83D-15 1.96D-09 XBig12= 1.31D-14 1.57D-08.
 InvSVY:  IOpt=1 It=  1 EMax= 1.78D-15
 Solved reduced A of dimension   322 with    51 vectors.
 FullF1:  Do perturbations      1 to      51.
 Saving first derivative matrices.
 End of Minotr F.D. properties file   721 does not exist.
 End of Minotr F.D. properties file   722 does not exist.
 End of Minotr F.D. properties file   788 does not exist.
 Leave Link 1002 at Wed May 11 21:29:56 2022, MaxMem= 67108864000 cpu:              28.9 elap:               1.1
 (Enter /cm/shared/apps/gaussian/intel/EM64T/SSE4_2-enabled/binary//g16/l811.exe)
 MDV= 67108864000.
 Form MO integral derivatives with frozen-active canonical formalism.
 MOERI=1 MOERIx=1 NAtoms=    16 NAtomX=    16.
 Discarding MO integrals.
 MO basis two electron integral derivatives will not be stored on disk.
 IAlg= 3 DoFC=T DoPWx=T Debug=F.
 Reordered first order wavefunction length =     12152450
 In DefCFB: NBatch=  1 ICI= 29 ICA= 85 LFMax= 85
            Large arrays: LIAPS=   128140560 LIARS=    76715730 words.
 In StABat: MaxSiz= 39 MinSiz= 37 NAtomB=  3
 DoIAMN: NPSUse= 28.
 Leave Link  811 at Wed May 11 21:30:18 2022, MaxMem= 67108864000 cpu:             612.3 elap:              21.9
 (Enter /cm/shared/apps/gaussian/intel/EM64T/SSE4_2-enabled/binary//g16/l804.exe)
 Closed-shell transformation, MDV= 67108864000 ITran=4 ISComp=1.
 Semi-Direct transformation.
 ModeAB=           4 MOrb=            29 LenV=   67108408290
 LASXX=     17409106 LTotXX=    17409106 LenRXX=    35346331
 LTotAB=    17937225 MaxLAS=    20741844 LenRXY=           0
 NonZer=    52755437 LenScr=    79902720 LnRSAI=    20741844
 LnScr1=    31886848 LExtra=           0 Total=    167877743
 MaxDsk=          -1 SrtSym=           T ITran=            4
 DoSDTr:  NPSUse= 28
 JobTyp=0 Pass  1:  I=   1 to  29.
 (rs|ai) integrals will be sorted in core.
 Complete sort for first half transformation.
 First half transformation complete.
 Begin second half transformation for I=  10.
 Begin second half transformation for I=  20.
 Complete sort for second half transformation.
 Second half transformation complete.
 SymMOI:  orbitals are not symmetric.
 Spin components of T(2) and E(2):
     alpha-alpha T2 =       0.3126061312D-01 E2=     -0.1007134168D+00
     alpha-beta  T2 =       0.1809502711D+00 E2=     -0.5903121824D+00
     beta-beta   T2 =       0.3126061312D-01 E2=     -0.1007134168D+00
 ANorm=    0.1577004437D+01
 E2 =    -0.7917390160D+00 EUMP2 =    -0.23729564707187D+03
 Leave Link  804 at Wed May 11 21:30:20 2022, MaxMem= 67108864000 cpu:              73.5 elap:               2.7
 (Enter /cm/shared/apps/gaussian/intel/EM64T/SSE4_2-enabled/binary//g16/l1002.exe)
 Minotr:  Closed shell wavefunction.
          Computing MP2/KS-MP2 derivatives.
          Using Z-Vector for PSCF gradient.
          Skipping F1 and S1 gradient terms here.
          IDoAtm=1111111111111111
          Using MO integrals in the linear equations.
          Forming densities via direct SCF.
          Differentiating once with respect to electric field.
                with respect to dipole field.
          Differentiating once with respect to nuclear coordinates.
          Requested convergence is 1.0D-10 RMS, and 1.0D-09 maximum.
          NewPWx=F KeepS1=T KeepF1=T KeepIn=T MapXYZ=F SortEE=F KeepMc=T.
          MDV=   67108864000 using IRadAn=       5.
          Solving linear equations separately, MaxMat=       0.
          There are     1 degrees of freedom in the 1st order CPHF.  IDoFFX=0 NUNeed=     1.
 FoFJK:  IHMeth= 1 ICntrl=       0 DoSepK=F KAlg= 0 I1Cent=           0 FoldK=F
 IRaf=         0 NMat=       1 IRICut=       1 DoRegI=T DoRafI=F ISym2E= 0 IDoP0=0 IntGTp=1.
 FoFCou: FMM=F IPFlag=           0 FMFlag=      100000 FMFlg1=           0
         NFxFlg=           0 DoJE=F BraDBF=F KetDBF=F FulRan=T
         wScrn=  0.000000 ICntrl=         0 IOpCl=  0 I1Cent=           0 NGrid=           0
         NMat0=    1 NMatS0=      1 NMatT0=    0 NMatD0=    1 NMtDS0=    0 NMtDT0=    0
 Symmetry not used in FoFCou.
 LinEq1:  Iter=  0 NonCon=     1 RMS=6.77D-03 Max=1.10D-01 NDo=     1
 LinEq1:  Iter=  1 NonCon=     1 RMS=1.48D-03 Max=1.22D-02 NDo=     1
 LinEq1:  Iter=  2 NonCon=     1 RMS=4.67D-04 Max=7.19D-03 NDo=     1
 LinEq1:  Iter=  3 NonCon=     1 RMS=1.46D-04 Max=2.26D-03 NDo=     1
 LinEq1:  Iter=  4 NonCon=     1 RMS=4.77D-05 Max=4.53D-04 NDo=     1
 LinEq1:  Iter=  5 NonCon=     1 RMS=1.12D-05 Max=1.04D-04 NDo=     1
 LinEq1:  Iter=  6 NonCon=     1 RMS=4.75D-06 Max=5.62D-05 NDo=     1
 LinEq1:  Iter=  7 NonCon=     1 RMS=8.22D-07 Max=1.24D-05 NDo=     1
 LinEq1:  Iter=  8 NonCon=     1 RMS=1.90D-07 Max=2.89D-06 NDo=     1
 LinEq1:  Iter=  9 NonCon=     1 RMS=9.96D-08 Max=1.11D-06 NDo=     1
 LinEq1:  Iter= 10 NonCon=     1 RMS=1.95D-08 Max=1.85D-07 NDo=     1
 LinEq1:  Iter= 11 NonCon=     1 RMS=3.37D-09 Max=3.67D-08 NDo=     1
 LinEq1:  Iter= 12 NonCon=     1 RMS=1.43D-09 Max=1.62D-08 NDo=     1
 LinEq1:  Iter= 13 NonCon=     1 RMS=2.95D-10 Max=3.15D-09 NDo=     1
 LinEq1:  Iter= 14 NonCon=     0 RMS=3.90D-11 Max=3.41D-10 NDo=     1
 Linear equations converged to 1.000D-10 1.000D-09 after    14 iterations.
 End of Minotr F.D. properties file   721 does not exist.
 End of Minotr F.D. properties file   722 does not exist.
 End of Minotr F.D. properties file   788 does not exist.
 Leave Link 1002 at Wed May 11 21:30:22 2022, MaxMem= 67108864000 cpu:              44.9 elap:               1.6
 (Enter /cm/shared/apps/gaussian/intel/EM64T/SSE4_2-enabled/binary//g16/l1102.exe)
 Use density number 2.
 Symmetrizing basis deriv contribution to polar:
 IMax=3 JMax=2 DiffMx= 0.00D+00
 Leave Link 1102 at Wed May 11 21:30:22 2022, MaxMem= 67108864000 cpu:               0.7 elap:               0.0
 (Enter /cm/shared/apps/gaussian/intel/EM64T/SSE4_2-enabled/binary//g16/l1110.exe)
 Forming Gx(P) for generalized density number  2 NAtomX=    16.
 Integral derivatives from FoFJK, PRISM(SPDF).
 Do as many integral derivatives as possible in FoFJK.
 G2DrvN: MDV=   67108862744.
 G2DrvN: will do    17 centers at a time, making    1 passes.
 Calling FoFCou, ICntrl=  3107 FMM=F I1Cent=   0 AccDes= 0.00D+00.
 FoFJK:  IHMeth= 1 ICntrl=    3107 DoSepK=F KAlg= 0 I1Cent=           0 FoldK=F
 IRaf=         0 NMat=       1 IRICut=       1 DoRegI=T DoRafI=F ISym2E= 0 IDoP0=0 IntGTp=1.
 FoFCou: FMM=F IPFlag=           0 FMFlag=      100000 FMFlg1=           0
         NFxFlg=           0 DoJE=F BraDBF=F KetDBF=F FulRan=T
         wScrn=  0.000000 ICntrl=      3107 IOpCl=  0 I1Cent=           0 NGrid=           0
         NMat0=    1 NMatS0=      1 NMatT0=    0 NMatD0=    1 NMtDS0=    0 NMtDT0=    0
 Symmetry not used in FoFCou.
 End of G2Drv F.D. properties file   721 does not exist.
 End of G2Drv F.D. properties file   722 does not exist.
 End of G2Drv F.D. properties file   788 does not exist.
 Leave Link 1110 at Wed May 11 21:30:22 2022, MaxMem= 67108864000 cpu:              10.4 elap:               0.4
 (Enter /cm/shared/apps/gaussian/intel/EM64T/SSE4_2-enabled/binary//g16/l1112.exe)
 MP22nd: MDV=   67108864000
 This link is doing NAtomX=    16 total of    51 degrees of freedom.
 Using ON3 I/O method in MakUI.
 Using Ix for Sx.
 Using OV2 memory method for fx*t*t/D, MaxI=    29 DoOO2=F NP=  28.
 R2 and R3 integrals will be kept in memory, NReq=    43794580.
 FoFCou: FMM=F IPFlag=           0 FMFlag=           0 FMFlg1=           0
         NFxFlg=           0 DoJE=F BraDBF=F KetDBF=F FulRan=T
         wScrn=  0.000000 ICntrl=       600 IOpCl=  0 I1Cent=           0 NGrid=           0
         NMat0=    1 NMatS0=      1 NMatT0=    0 NMatD0=    1 NMtDS0=    0 NMtDT0=    0
 Symmetry not used in FoFCou.
 DD1Dir will call FoFMem   1 times, MxPair=       870
 NAB=   435 NAA=     0 NBB=     0.
 Symmetry is being used.
 FoFJK:  IHMeth= 1 ICntrl=       0 DoSepK=F KAlg= 0 I1Cent=           0 FoldK=F
 IRaf=         0 NMat=      51 IRICut=     127 DoRegI=T DoRafI=T ISym2E= 2 IDoP0=0 IntGTp=1.
 Discarding MO integrals.
 Leave Link 1112 at Wed May 11 21:30:41 2022, MaxMem= 67108864000 cpu:             506.8 elap:              18.2
 (Enter /cm/shared/apps/gaussian/intel/EM64T/SSE4_2-enabled/binary//g16/l601.exe)
 Copying SCF densities to generalized density rwf, IOpCl= 0 IROHF=0.

 **********************************************************************

            Population analysis using the SCF density.

 **********************************************************************

 Orbital symmetries:
       Occupied  (A) (A) (A) (A) (A) (A) (A) (A) (A) (A) (A) (A)
                 (A) (A) (A) (A) (A) (A) (A) (A) (A) (A) (A) (A)
                 (A) (A) (A) (A) (A)
       Virtual   (A) (A) (A) (A) (A) (A) (A) (A) (A) (A) (A) (A)
                 (A) (A) (A) (A) (A) (A) (A) (A) (A) (A) (A) (A)
                 (A) (A) (A) (A) (A) (A) (A) (A) (A) (A) (A) (A)
                 (A) (A) (A) (A) (A) (A) (A) (A) (A) (A) (A) (A)
                 (A) (A) (A) (A) (A) (A) (A) (A) (A) (A) (A) (A)
                 (A) (A) (A) (A) (A) (A) (A) (A) (A) (A) (A) (A)
                 (A) (A) (A) (A) (A) (A) (A) (A) (A) (A) (A) (A)
                 (A)
 The electronic state is 1-A.
 Alpha  occ. eigenvalues --   -5.44032  -3.43575  -3.43033  -3.43006  -1.73125
 Alpha  occ. eigenvalues --   -1.68223  -1.66939  -1.66512  -1.63509  -1.09692
 Alpha  occ. eigenvalues --   -1.07563  -1.07312  -1.06597  -1.01947  -1.01551
 Alpha  occ. eigenvalues --   -1.01519  -1.00215  -0.99712  -0.99710  -0.95266
 Alpha  occ. eigenvalues --   -0.92361  -0.88873  -0.85593  -0.85224  -0.83410
 Alpha  occ. eigenvalues --   -0.83205  -0.81481  -0.80873  -0.80516
 Alpha virt. eigenvalues --   -0.24819  -0.19692  -0.19296  -0.15849  -0.15051
 Alpha virt. eigenvalues --   -0.10986  -0.10201  -0.08448  -0.07599  -0.07013
 Alpha virt. eigenvalues --   -0.06052  -0.05709  -0.04719  -0.02683  -0.02283
 Alpha virt. eigenvalues --   -0.00892  -0.00652  -0.00200  -0.00034   0.00577
 Alpha virt. eigenvalues --    0.01352   0.03883   0.04323   0.05686   0.06182
 Alpha virt. eigenvalues --    0.08377   0.10149   0.10647   0.11030   0.12137
 Alpha virt. eigenvalues --    0.13884   0.14039   0.15788   0.16545   0.20849
 Alpha virt. eigenvalues --    0.21445   0.23764   0.27010   0.27655   0.35109
 Alpha virt. eigenvalues --    0.61824   0.61889   0.66996   0.68110   0.93626
 Alpha virt. eigenvalues --    0.97585   1.04420   1.05800   1.06601   1.07101
 Alpha virt. eigenvalues --    1.07766   1.08899   1.09625   1.11085   1.11217
 Alpha virt. eigenvalues --    1.14379   1.14517   1.14996   1.15749   1.17972
 Alpha virt. eigenvalues --    1.18094   1.19642   1.21240   1.22200   1.23696
 Alpha virt. eigenvalues --    1.26415   1.28012   1.30976   1.33283   1.37371
 Alpha virt. eigenvalues --    1.38273   1.46046   1.48511   1.55769   2.15823
 Alpha virt. eigenvalues --    2.40518   2.45855   2.83692   3.10033   4.23034
 Alpha virt. eigenvalues --   15.47059  41.57728  41.58237  41.72502  81.45407
          Condensed to atoms (all electrons):
               1          2          3          4          5          6
     1  Hg  18.382067   0.143253  -0.004166  -0.003809   0.115460  -0.000636
     2  O    0.143253   6.707954   0.175681   0.174922  -0.000870   0.000029
     3  H   -0.004166   0.175681   0.142643  -0.002285  -0.000061   0.000000
     4  H   -0.003809   0.174922  -0.002285   0.142131   0.000031   0.000000
     5  O    0.115460  -0.000870  -0.000061   0.000031   6.684426   0.119416
     6  H   -0.000636   0.000029   0.000000   0.000000   0.119416   0.128025
     7  H   -0.008810  -0.000179   0.000000   0.000000   0.244079  -0.003542
     8  O   -0.002580  -0.038294  -0.000151   0.057176  -0.000028   0.000000
     9  H    0.000794   0.000858  -0.000008  -0.001309   0.000002   0.000000
    10  H    0.000553   0.000777   0.000002  -0.001244   0.000001  -0.000000
    11  O    0.002260  -0.000001   0.000001   0.000001  -0.059740   0.110772
    12  H    0.000214   0.000001   0.000000  -0.000000   0.002113  -0.002874
    13  H    0.000273   0.000001  -0.000000   0.000000   0.002620  -0.003027
    14  O   -0.002661  -0.038259   0.056678  -0.000132  -0.000028   0.000000
    15  H    0.000795   0.000848  -0.001305  -0.000008   0.000001   0.000000
    16  H    0.000548   0.000766  -0.001249   0.000001  -0.000001  -0.000000
               7          8          9         10         11         12
     1  Hg  -0.008810  -0.002580   0.000794   0.000553   0.002260   0.000214
     2  O   -0.000179  -0.038294   0.000858   0.000777  -0.000001   0.000001
     3  H    0.000000  -0.000151  -0.000008   0.000002   0.000001   0.000000
     4  H    0.000000   0.057176  -0.001309  -0.001244   0.000001  -0.000000
     5  O    0.244079  -0.000028   0.000002   0.000001  -0.059740   0.002113
     6  H   -0.003542   0.000000   0.000000  -0.000000   0.110772  -0.002874
     7  H    0.230995   0.000005  -0.000000   0.000000   0.001368  -0.000019
     8  O    0.000005   6.390966   0.261534   0.259896   0.000000  -0.000000
     9  H   -0.000000   0.261534   0.236259  -0.014397  -0.000000   0.000000
    10  H    0.000000   0.259896  -0.014397   0.241173  -0.000000  -0.000000
    11  O    0.001368   0.000000  -0.000000  -0.000000   6.317563   0.251494
    12  H   -0.000019  -0.000000   0.000000  -0.000000   0.251494   0.222989
    13  H   -0.000026  -0.000000  -0.000000   0.000000   0.252562  -0.010937
    14  O    0.000005  -0.001092   0.000006   0.000042  -0.000000  -0.000000
    15  H   -0.000000   0.000005  -0.000000  -0.000000  -0.000000   0.000000
    16  H    0.000000   0.000041  -0.000000  -0.000000  -0.000000   0.000000
              13         14         15         16
     1  Hg   0.000273  -0.002661   0.000795   0.000548
     2  O    0.000001  -0.038259   0.000848   0.000766
     3  H   -0.000000   0.056678  -0.001305  -0.001249
     4  H    0.000000  -0.000132  -0.000008   0.000001
     5  O    0.002620  -0.000028   0.000001  -0.000001
     6  H   -0.003027   0.000000   0.000000  -0.000000
     7  H   -0.000026   0.000005  -0.000000   0.000000
     8  O   -0.000000  -0.001092   0.000005   0.000041
     9  H   -0.000000   0.000006  -0.000000  -0.000000
    10  H    0.000000   0.000042  -0.000000  -0.000000
    11  O    0.252562  -0.000000  -0.000000  -0.000000
    12  H   -0.010937  -0.000000   0.000000   0.000000
    13  H    0.220414  -0.000000   0.000000  -0.000000
    14  O   -0.000000   6.391369   0.261651   0.260078
    15  H    0.000000   0.261651   0.236592  -0.014451
    16  H   -0.000000   0.260078  -0.014451   0.241573
 Mulliken charges:
               1
     1  Hg   1.376445
     2  O   -1.127486
     3  H    0.634220
     4  H    0.634524
     5  O   -1.107419
     6  H    0.651838
     7  H    0.536126
     8  O   -0.927476
     9  H    0.516261
    10  H    0.513197
    11  O   -0.876278
    12  H    0.537019
    13  H    0.538121
    14  O   -0.927657
    15  H    0.515872
    16  H    0.512693
 Sum of Mulliken charges =   2.00000
 Mulliken charges with hydrogens summed into heavy atoms:
               1
     1  Hg   1.376445
     2  O    0.141258
     5  O    0.080545
     8  O    0.101982
    11  O    0.198862
    14  O    0.100908
         Mulliken charges condensed to fragments:
      1      1.376445
      2      0.623555
 APT charges:
               1
     1  Hg   1.312745
     2  O   -1.146768
     3  H    0.783578
     4  H    0.788444
     5  O   -0.994475
     6  H    0.967036
     7  H    0.338546
     8  O   -0.798680
     9  H    0.389749
    10  H    0.383232
    11  O   -0.849065
    12  H    0.422609
    13  H    0.427464
    14  O   -0.796020
    15  H    0.389039
    16  H    0.382565
 Sum of APT charges =   2.00000
 APT charges with hydrogens summed into heavy atoms:
               1
     1  Hg   1.312745
     2  O    0.425255
     5  O    0.311107
     8  O   -0.025698
    11  O    0.001008
    14  O   -0.024416
         APT charges condensed to fragments:
      1      1.312745
      2      0.687255
 Electronic spatial extent (au):  <R**2>=           1648.9125
 Charge=              2.0000 electrons
 Dipole moment (field-independent basis, Debye):
    X=             -0.1466    Y=              0.8660    Z=             -0.2930  Tot=              0.9259
 Quadrupole moment (field-independent basis, Debye-Ang):
   XX=             65.3233   YY=            -26.8444   ZZ=            -41.8256
   XY=             -1.5362   XZ=              0.0639   YZ=             -0.8966
 Traceless Quadrupole moment (field-independent basis, Debye-Ang):
   XX=             66.4388   YY=            -25.7288   ZZ=            -40.7100
   XY=             -1.5362   XZ=              0.0639   YZ=             -0.8966
 Octapole moment (field-independent basis, Debye-Ang**2):
  XXX=           -105.3288  YYY=              6.9017  ZZZ=            -18.7644  XYY=             72.2524
  XXY=              8.1240  XXZ=             33.0874  XZZ=              0.4313  YZZ=             -1.6680
  YYZ=             12.1166  XYZ=             -0.4106
 Hexadecapole moment (field-independent basis, Debye-Ang**3):
 XXXX=            559.7436 YYYY=           -276.3034 ZZZZ=            -86.5799 XXXY=            -48.7457
 XXXZ=           -147.1099 YYYX=             18.5073 YYYZ=              2.9562 ZZZX=             35.9528
 ZZZY=             -3.5561 XXYY=             80.0658 XXZZ=           -192.7036 YYZZ=            -46.3295
 XXYZ=            -14.7052 YYXZ=             27.7169 ZZXY=              1.3171
 N-N= 2.590056629702D+02 E-N=-1.023400834699D+03  KE= 1.184731808474D+02
  Exact polarizability:  68.355   0.045  45.449  -0.161  -0.097  40.444
 Approx polarizability:  36.580  -0.113  30.317  -1.099  -0.202  30.075
 No NMR shielding tensors so no spin-rotation constants.
 Leave Link  601 at Wed May 11 21:30:41 2022, MaxMem= 67108864000 cpu:               5.3 elap:               0.2
 (Enter /cm/shared/apps/gaussian/intel/EM64T/SSE4_2-enabled/binary//g16/l701.exe)
 ... and contract with generalized density number  2.
 Compute integral second derivatives.
   1 Symmetry operations used in ECPInt.
 ECPInt:  NShTT=    1770 NPrTT=    5742 LenC2=    1736 LenP2D=    4417.
 LDataN:  DoStor=T MaxTD1= 9 Len=  602
 Leave Link  701 at Wed May 11 21:30:42 2022, MaxMem= 67108864000 cpu:              35.7 elap:               1.3
 (Enter /cm/shared/apps/gaussian/intel/EM64T/SSE4_2-enabled/binary//g16/l702.exe)
 L702 exits ... SP integral derivatives will be done elsewhere.
 Leave Link  702 at Wed May 11 21:30:42 2022, MaxMem= 67108864000 cpu:               0.8 elap:               0.0
 (Enter /cm/shared/apps/gaussian/intel/EM64T/SSE4_2-enabled/binary//g16/l703.exe)
 Integral derivatives from FoFJK, PRISM(SPDF).
 Compute integral second derivatives, UseDBF=F ICtDFT=           0.
 Calling FoFJK, ICntrl=  10100127 FMM=F ISym2X=0 I1Cent= 0 IOpClX= 0 NMat=1 NMatS=1 NMatT=0.
 FoFJK:  IHMeth= 1 ICntrl=10100127 DoSepK=F KAlg= 0 I1Cent=           0 FoldK=F
 IRaf=         0 NMat=       1 IRICut=       1 DoRegI=T DoRafI=F ISym2E= 0 IDoP0=0 IntGTp=1.
 FoFCou: FMM=F IPFlag=           0 FMFlag=      100000 FMFlg1=         800
         NFxFlg=           0 DoJE=F BraDBF=F KetDBF=F FulRan=T
         wScrn=  0.000000 ICntrl=  10100127 IOpCl=  0 I1Cent=           0 NGrid=           0
         NMat0=    1 NMatS0=      1 NMatT0=    0 NMatD0=    1 NMtDS0=    0 NMtDT0=    0
 Symmetry not used in FoFCou.
 Leave Link  703 at Wed May 11 21:30:43 2022, MaxMem= 67108864000 cpu:              15.7 elap:               0.6
 (Enter /cm/shared/apps/gaussian/intel/EM64T/SSE4_2-enabled/binary//g16/l716.exe)
 Dipole        =-4.95198345D-02 3.23630674D-01-3.53724644D-02
 Polarizability= 6.83545013D+01 4.45689305D-02 4.54489792D+01
                -1.60997438D-01-9.74900113D-02 4.04439352D+01
 Full mass-weighted force constant matrix:
 Low frequencies --- -341.0200 -337.6713 -247.1815 -108.3113  -74.5978  -64.8593
 Low frequencies ---  -38.8233  -33.4027    0.0001
 ******    6 imaginary frequencies (negative Signs) ****** 
 Diagonal vibrational polarizability:
     1065.7282220    7374.1605526     749.3491898
 Harmonic frequencies (cm**-1), IR intensities (KM/Mole), Raman scattering
 activities (A**4/AMU), depolarization ratios for plane and unpolarized
 incident light, reduced masses (AMU), force constants (mDyne/A),
 and normal coordinates:
                      1                      2                      3
                      A                      A                      A
 Frequencies --   -339.1892              -337.1335              -245.4606
 Red. masses --      1.0113                 1.0332                 1.0539
 Frc consts  --      0.0686                 0.0692                 0.0374
 IR Inten    --      2.6541                51.4726                70.2969
  Atom  AN      X      Y      Z        X      Y      Z        X      Y      Z
     1  80    -0.00   0.00  -0.00    -0.00  -0.00   0.00    -0.00   0.00  -0.00
     2   8     0.00  -0.00  -0.00     0.01   0.00  -0.02    -0.00  -0.00   0.00
     3   1    -0.00   0.01   0.03     0.01  -0.01  -0.06     0.00  -0.00   0.01
     4   1     0.00   0.00  -0.05     0.00   0.00  -0.05    -0.00  -0.00  -0.00
     5   8     0.00   0.00  -0.00     0.00  -0.00  -0.00     0.00  -0.03   0.00
     6   1    -0.00  -0.00   0.00    -0.01   0.00   0.00    -0.00  -0.04   0.00
     7   1     0.00   0.02   0.00     0.00  -0.00  -0.00    -0.00  -0.09  -0.00
     8   8    -0.00  -0.00   0.01    -0.00  -0.00   0.02    -0.00  -0.01  -0.02
     9   1     0.41   0.39   0.01     0.28   0.28   0.03     0.01  -0.01  -0.02
    10   1    -0.39  -0.39  -0.23    -0.26  -0.27  -0.13    -0.01   0.00  -0.02
    11   8    -0.00  -0.01  -0.00    -0.00   0.00  -0.01     0.00   0.04  -0.00
    12   1    -0.00  -0.01   0.01    -0.00   0.00  -0.01    -0.30  -0.24  -0.59
    13   1     0.00  -0.01  -0.01    -0.00   0.00  -0.01     0.30  -0.12   0.62
    14   8     0.00  -0.00   0.00    -0.00   0.00   0.03     0.00  -0.00   0.02
    15   1    -0.30   0.25  -0.01     0.43  -0.38   0.05    -0.01  -0.01   0.03
    16   1     0.28  -0.24   0.18    -0.40   0.36  -0.23     0.01   0.01   0.03
                      4                      5                      6
                      A                      A                      A
 Frequencies --   -103.3042               -60.6434                -6.1548
 Red. masses --      2.4142                 3.0773                 4.8729
 Frc consts  --      0.0152                 0.0067                 0.0001
 IR Inten    --      2.6529                52.7590                10.3641
  Atom  AN      X      Y      Z        X      Y      Z        X      Y      Z
     1  80     0.00   0.01   0.00     0.00   0.00  -0.04    -0.00   0.04  -0.00
     2   8     0.00  -0.05   0.01     0.03  -0.00  -0.16    -0.00   0.10   0.00
     3   1     0.00  -0.05  -0.00     0.03   0.01  -0.13     0.06   0.08  -0.00
     4   1     0.00  -0.05   0.02     0.03  -0.01  -0.12    -0.07   0.08   0.01
     5   8    -0.00   0.21  -0.04    -0.03   0.00   0.07     0.01  -0.18   0.01
     6   1    -0.01   0.05   0.00     0.03  -0.00   0.10     0.01  -0.18  -0.01
     7   1     0.02   0.68   0.00    -0.09  -0.00   0.08    -0.01  -0.39  -0.01
     8   8     0.01  -0.04   0.08    -0.02  -0.05   0.17    -0.24  -0.06   0.02
     9   1    -0.03  -0.01   0.11    -0.26   0.10   0.34    -0.32  -0.08   0.05
    10   1     0.05  -0.06   0.12     0.15  -0.22   0.38    -0.23  -0.16   0.06
    11   8    -0.01  -0.16   0.02     0.04  -0.01   0.16    -0.00  -0.24   0.00
    12   1    -0.26  -0.34  -0.00     0.03  -0.01   0.19    -0.02  -0.25   0.08
    13   1     0.23  -0.34   0.06     0.05  -0.01   0.19     0.01  -0.26  -0.07
    14   8    -0.01  -0.04  -0.08    -0.02   0.05   0.15     0.25  -0.06  -0.03
    15   1     0.05  -0.00  -0.13    -0.24  -0.09   0.31     0.35  -0.06  -0.07
    16   1    -0.06  -0.09  -0.14     0.14   0.23   0.33     0.24  -0.17  -0.07
                      7                      8                      9
                      A                      A                      A
 Frequencies --     51.9991                55.0100               115.9113
 Red. masses --      4.9626                 5.1043                 5.5369
 Frc consts  --      0.0079                 0.0091                 0.0438
 IR Inten    --     63.0027                 8.1148                 5.0644
  Atom  AN      X      Y      Z        X      Y      Z        X      Y      Z
     1  80    -0.03  -0.00  -0.03    -0.03  -0.00   0.00    -0.00   0.07  -0.01
     2   8    -0.10   0.01   0.18     0.01  -0.01  -0.13     0.00  -0.26   0.03
     3   1    -0.06   0.00   0.19     0.05  -0.03  -0.10     0.02  -0.29   0.04
     4   1    -0.06   0.02   0.19     0.05   0.01  -0.10    -0.01  -0.29   0.01
     5   8    -0.01  -0.02  -0.17    -0.05   0.01   0.11     0.01  -0.17   0.03
     6   1     0.21  -0.04  -0.17    -0.17   0.02   0.12     0.01  -0.11  -0.00
     7   1    -0.04  -0.00  -0.16    -0.05   0.00   0.11    -0.02  -0.58  -0.00
     8   8     0.10   0.14   0.07     0.27   0.14   0.02     0.18  -0.15   0.05
     9   1     0.26   0.11  -0.01     0.24   0.22   0.07     0.22  -0.10   0.06
    10   1     0.01   0.26  -0.04     0.36   0.17   0.09     0.20  -0.10   0.05
    11   8     0.26   0.02   0.17    -0.19  -0.01  -0.07     0.00  -0.08   0.00
    12   1     0.25   0.03   0.27    -0.19  -0.01  -0.12     0.07  -0.03   0.06
    13   1     0.24   0.04   0.30    -0.18  -0.02  -0.13    -0.06  -0.04  -0.05
    14   8     0.11  -0.12   0.07     0.27  -0.13   0.03    -0.18  -0.17  -0.04
    15   1     0.27  -0.08  -0.02     0.24  -0.21   0.09    -0.19  -0.10  -0.08
    16   1     0.02  -0.25  -0.05     0.36  -0.15   0.10    -0.22  -0.15  -0.07
                     10                     11                     12
                      A                      A                      A
 Frequencies --    133.2964               293.3151               313.9081
 Red. masses --      5.1090                 4.9523                 1.0901
 Frc consts  --      0.0535                 0.2510                 0.0633
 IR Inten    --     51.8797               117.4797                10.8623
  Atom  AN      X      Y      Z        X      Y      Z        X      Y      Z
     1  80     0.03  -0.01  -0.06    -0.04  -0.00  -0.01    -0.00  -0.00  -0.00
     2   8    -0.05   0.02   0.29     0.07   0.00   0.08    -0.00   0.01   0.00
     3   1    -0.05   0.01   0.28     0.06  -0.03   0.16     0.04  -0.04  -0.23
     4   1    -0.05   0.04   0.28     0.05   0.04   0.15    -0.04  -0.03   0.23
     5   8    -0.04   0.03   0.26    -0.02  -0.02  -0.03     0.00   0.03   0.00
     6   1    -0.23   0.07   0.39    -0.18   0.03   0.10     0.00   0.08  -0.02
     7   1    -0.13  -0.02   0.27     0.04   0.07  -0.04     0.00  -0.20  -0.02
     8   8    -0.04   0.02   0.04     0.17  -0.29   0.03    -0.01  -0.01   0.04
     9   1     0.16  -0.10  -0.10     0.32  -0.40  -0.09     0.28  -0.29  -0.20
    10   1    -0.20   0.15  -0.13     0.09  -0.14  -0.09    -0.20   0.32  -0.22
    11   8    -0.19   0.01   0.10     0.02   0.00   0.01     0.01  -0.01  -0.00
    12   1    -0.18   0.01   0.05     0.03   0.01   0.04    -0.08  -0.06   0.08
    13   1    -0.16  -0.02   0.02     0.05  -0.01   0.03     0.09  -0.08  -0.06
    14   8    -0.02  -0.01   0.05     0.15   0.31   0.01     0.01  -0.01  -0.04
    15   1     0.18   0.12  -0.11     0.31   0.42  -0.12    -0.26  -0.29   0.22
    16   1    -0.18  -0.16  -0.13     0.08   0.13  -0.10     0.18   0.35   0.21
                     13                     14                     15
                      A                      A                      A
 Frequencies --    321.2154               389.8543               420.2925
 Red. masses --      1.1746                 1.5356                 4.0686
 Frc consts  --      0.0714                 0.1375                 0.4234
 IR Inten    --    111.0401                54.7470               190.0883
  Atom  AN      X      Y      Z        X      Y      Z        X      Y      Z
     1  80     0.00   0.01  -0.00    -0.00  -0.00  -0.00     0.01  -0.00   0.00
     2   8     0.00  -0.00   0.00     0.00   0.00   0.15     0.01   0.32  -0.00
     3   1     0.02  -0.03  -0.07     0.01  -0.05  -0.17     0.05   0.45  -0.06
     4   1    -0.01  -0.03   0.07     0.01   0.03  -0.18    -0.04   0.43   0.04
     5   8    -0.01  -0.09  -0.02    -0.01  -0.01  -0.01    -0.06   0.04  -0.08
     6   1    -0.00  -0.29   0.05    -0.04   0.02   0.02     0.09  -0.13  -0.19
     7   1    -0.00   0.74   0.06     0.00   0.01  -0.01    -0.10  -0.17  -0.09
     8   8    -0.01  -0.00   0.02     0.03  -0.01  -0.07     0.11  -0.17  -0.01
     9   1     0.08  -0.10  -0.06    -0.26   0.33   0.20     0.10  -0.17  -0.00
    10   1    -0.07   0.10  -0.07     0.24  -0.37   0.22     0.13  -0.24   0.02
    11   8    -0.02  -0.01   0.01    -0.01   0.00   0.00    -0.08  -0.01   0.05
    12   1     0.24   0.14  -0.21    -0.02  -0.00   0.02     0.03   0.06  -0.00
    13   1    -0.28   0.19   0.18     0.01  -0.01  -0.00    -0.22   0.10   0.17
    14   8     0.00  -0.01  -0.01     0.03   0.01  -0.07    -0.09  -0.16   0.02
    15   1    -0.08  -0.11   0.07    -0.24  -0.32   0.22    -0.09  -0.14   0.01
    16   1     0.06   0.10   0.07     0.21   0.39   0.19    -0.13  -0.21  -0.02
                     16                     17                     18
                      A                      A                      A
 Frequencies --    421.7463               441.0665               616.0031
 Red. masses --      2.6775                 1.7008                 1.1664
 Frc consts  --      0.2806                 0.1949                 0.2608
 IR Inten    --    575.8378                25.1444               680.4498
  Atom  AN      X      Y      Z        X      Y      Z        X      Y      Z
     1  80    -0.02   0.00  -0.01    -0.01  -0.00  -0.00     0.00  -0.00  -0.00
     2   8    -0.04   0.10  -0.01    -0.02  -0.00   0.01    -0.00   0.01  -0.00
     3   1    -0.03   0.11  -0.03    -0.02  -0.01  -0.01     0.08  -0.03   0.02
     4   1    -0.06   0.17  -0.00    -0.02   0.01  -0.00    -0.08  -0.03  -0.02
     5   8     0.12  -0.06   0.17     0.07   0.13   0.08    -0.00  -0.00   0.00
     6   1    -0.19   0.23   0.39     0.04  -0.34   0.08     0.02  -0.00  -0.01
     7   1     0.20   0.44   0.19    -0.02  -0.36   0.06    -0.01   0.02   0.01
     8   8     0.03  -0.05  -0.01     0.00  -0.01   0.00    -0.04  -0.06  -0.02
     9   1     0.02  -0.02   0.01    -0.00   0.02   0.02     0.26   0.43   0.08
    10   1     0.06  -0.06   0.02     0.02  -0.01   0.02     0.24   0.41   0.11
    11   8     0.16   0.03  -0.11     0.07  -0.08  -0.05     0.00   0.00   0.00
    12   1    -0.01  -0.08  -0.02     0.50   0.17  -0.40    -0.00  -0.00  -0.00
    13   1     0.40  -0.18  -0.32    -0.35   0.26   0.24    -0.00   0.00  -0.01
    14   8    -0.04  -0.07   0.01     0.01   0.01  -0.01     0.05  -0.05   0.02
    15   1    -0.04  -0.10   0.03    -0.00  -0.01   0.00    -0.27   0.40  -0.10
    16   1    -0.02  -0.09   0.02     0.02   0.02   0.00    -0.26   0.39  -0.12
                     19                     20                     21
                      A                      A                      A
 Frequencies --    627.5369               639.2754               684.0521
 Red. masses --      1.1617                 1.6894                 2.5558
 Frc consts  --      0.2695                 0.4068                 0.7046
 IR Inten    --   3027.0271               458.4217               146.3021
  Atom  AN      X      Y      Z        X      Y      Z        X      Y      Z
     1  80    -0.00   0.00  -0.00    -0.01  -0.00  -0.00    -0.01  -0.00  -0.00
     2   8    -0.00   0.00   0.01     0.16   0.01   0.03     0.23   0.01   0.04
     3   1     0.02   0.03   0.00     0.17  -0.01   0.03     0.13   0.07  -0.01
     4   1     0.02  -0.03   0.01     0.17   0.02   0.03     0.13  -0.06  -0.01
     5   8    -0.06  -0.00   0.07    -0.03   0.01   0.00    -0.16   0.01   0.04
     6   1     0.74  -0.06  -0.33    -0.20   0.01   0.09    -0.08  -0.01  -0.03
     7   1    -0.38   0.09   0.15     0.04  -0.02  -0.01    -0.16   0.01   0.04
     8   8     0.02  -0.00  -0.00     0.02   0.08   0.02    -0.06  -0.02  -0.00
     9   1    -0.04  -0.09  -0.02    -0.25  -0.37  -0.07     0.21   0.34   0.05
    10   1    -0.04  -0.11  -0.03    -0.24  -0.35  -0.10     0.16   0.42   0.07
    11   8     0.04   0.01  -0.02     0.02  -0.01  -0.02     0.07  -0.01  -0.09
    12   1    -0.09  -0.10  -0.17     0.07   0.03   0.04     0.11   0.03   0.15
    13   1     0.03  -0.01  -0.27     0.02   0.00   0.08     0.08   0.01   0.18
    14   8     0.01   0.01   0.00     0.03  -0.08   0.02    -0.06   0.01  -0.00
    15   1    -0.03   0.07  -0.01    -0.29   0.37  -0.10     0.23  -0.33   0.07
    16   1    -0.03   0.08  -0.02    -0.27   0.35  -0.12     0.18  -0.41   0.09
                     22                     23                     24
                      A                      A                      A
 Frequencies --    707.1299               750.6213              1094.9721
 Red. masses --      1.6764                 2.3155                 1.1202
 Frc consts  --      0.4939                 0.7687                 0.7913
 IR Inten    --    205.3465               440.8958               898.2608
  Atom  AN      X      Y      Z        X      Y      Z        X      Y      Z
     1  80     0.01   0.00   0.00    -0.02  -0.00  -0.01    -0.00   0.00  -0.00
     2   8    -0.12  -0.00  -0.02     0.11   0.00   0.03    -0.00   0.00   0.00
     3   1    -0.08  -0.02  -0.00     0.08   0.04   0.00     0.01   0.02   0.00
     4   1    -0.08   0.02  -0.00     0.08  -0.03   0.00     0.00  -0.02   0.00
     5   8    -0.09  -0.00   0.05     0.24  -0.01   0.03    -0.05   0.00   0.06
     6   1    -0.05  -0.03  -0.21     0.48  -0.07  -0.38    -0.04  -0.04  -0.54
     7   1    -0.06   0.06   0.05     0.12   0.08   0.06     0.81   0.02  -0.11
     8   8     0.02  -0.01  -0.00    -0.01   0.00  -0.00     0.00  -0.00  -0.00
     9   1    -0.05  -0.08  -0.01     0.03   0.05   0.00     0.00   0.00   0.00
    10   1    -0.03  -0.11  -0.01     0.02   0.07   0.00    -0.00  -0.00  -0.00
    11   8     0.02  -0.01  -0.13    -0.09   0.01  -0.01     0.02  -0.00   0.03
    12   1     0.06   0.09   0.64    -0.16   0.02   0.52    -0.05  -0.05  -0.10
    13   1     0.09   0.02   0.64    -0.04   0.03   0.42    -0.07   0.05  -0.09
    14   8     0.02   0.01  -0.00    -0.01  -0.00   0.00     0.00   0.00   0.00
    15   1    -0.05   0.08  -0.01     0.04  -0.05   0.01     0.00  -0.00   0.00
    16   1    -0.03   0.11  -0.02     0.02  -0.07   0.01    -0.00  -0.00  -0.00
                     25                     26                     27
                      A                      A                      A
 Frequencies --   1255.4721              1329.7426              1374.4659
 Red. masses --      1.0459                 1.0356                 1.0622
 Frc consts  --      0.9713                 1.0789                 1.1823
 IR Inten    --     51.8970                 2.9436               306.8887
  Atom  AN      X      Y      Z        X      Y      Z        X      Y      Z
     1  80     0.00  -0.00   0.00     0.00  -0.00   0.00    -0.00   0.00   0.00
     2   8    -0.00   0.03  -0.00    -0.00   0.02  -0.00     0.00  -0.00  -0.04
     3   1     0.55  -0.29  -0.30     0.34  -0.05   0.61     0.10  -0.04   0.65
     4   1    -0.53  -0.30   0.31    -0.33  -0.09  -0.57     0.11   0.08   0.68
     5   8     0.00   0.00  -0.00    -0.00   0.00  -0.00    -0.00  -0.00   0.00
     6   1     0.00   0.00   0.00     0.00  -0.00   0.00     0.01  -0.00  -0.00
     7   1    -0.00   0.00   0.00    -0.00  -0.00  -0.00    -0.00   0.00  -0.00
     8   8     0.01   0.01  -0.02     0.01   0.00   0.02    -0.00   0.00  -0.03
     9   1    -0.08   0.06   0.04     0.02  -0.11  -0.04    -0.03   0.13   0.05
    10   1     0.01  -0.11   0.02    -0.06   0.08  -0.06     0.07  -0.12   0.07
    11   8    -0.00  -0.00  -0.00    -0.00  -0.00  -0.00     0.00  -0.00   0.00
    12   1     0.00  -0.00  -0.00    -0.00  -0.00   0.00    -0.00  -0.00   0.00
    13   1     0.00  -0.00   0.00     0.00  -0.00  -0.00    -0.00   0.00   0.00
    14   8    -0.01   0.01   0.02    -0.01   0.00  -0.03    -0.00  -0.00  -0.03
    15   1     0.08   0.06  -0.04    -0.01  -0.11   0.05    -0.02  -0.12   0.05
    16   1    -0.01  -0.11  -0.02     0.06   0.10   0.05     0.06   0.12   0.06
                     28                     29                     30
                      A                      A                      A
 Frequencies --   1579.0640              1666.8950              1675.5163
 Red. masses --      1.0614                 1.0639                 1.0625
 Frc consts  --      1.5593                 1.7417                 1.7574
 IR Inten    --    362.6712               311.6220                26.5150
  Atom  AN      X      Y      Z        X      Y      Z        X      Y      Z
     1  80    -0.00   0.00  -0.00     0.00  -0.00   0.00     0.00   0.00   0.00
     2   8    -0.00   0.00   0.00     0.00   0.00  -0.00    -0.03  -0.00   0.00
     3   1     0.00   0.01  -0.00     0.00  -0.02   0.00     0.35  -0.42  -0.09
     4   1     0.01  -0.01  -0.00     0.00   0.02  -0.00     0.32   0.45  -0.11
     5   8    -0.03  -0.01  -0.01     0.03  -0.02   0.01    -0.00   0.00  -0.00
     6   1     0.49   0.65   0.36    -0.33   0.64  -0.45     0.03  -0.02   0.00
     7   1     0.30  -0.00  -0.08    -0.33   0.06   0.08     0.01  -0.00  -0.00
     8   8     0.00  -0.00   0.00    -0.00   0.00   0.00    -0.04   0.02   0.00
     9   1    -0.00   0.00   0.00     0.01  -0.00  -0.00     0.27  -0.12  -0.16
    10   1    -0.00   0.00  -0.00     0.00  -0.00   0.00     0.18  -0.11   0.19
    11   8    -0.03  -0.04  -0.01     0.03  -0.04   0.01     0.00   0.00  -0.00
    12   1     0.24   0.12  -0.08    -0.03  -0.06  -0.14    -0.02  -0.01   0.01
    13   1    -0.04   0.01   0.18    -0.29   0.18   0.07    -0.01   0.01  -0.00
    14   8    -0.00   0.00  -0.00    -0.00  -0.00  -0.00    -0.03  -0.02   0.00
    15   1    -0.00   0.00  -0.00     0.01   0.00  -0.01     0.25   0.12  -0.16
    16   1     0.00   0.00  -0.00     0.01   0.00   0.01     0.16   0.12   0.17
                     31                     32                     33
                      A                      A                      A
 Frequencies --   1731.3823              1774.9038              1787.3770
 Red. masses --      1.1030                 1.0660                 1.0787
 Frc consts  --      1.9482                 1.9786                 2.0304
 IR Inten    --      7.0307                72.5864               370.5750
  Atom  AN      X      Y      Z        X      Y      Z        X      Y      Z
     1  80    -0.00  -0.00   0.00    -0.00  -0.00   0.00    -0.00  -0.00  -0.00
     2   8    -0.00   0.02  -0.00    -0.03  -0.00   0.00    -0.01  -0.00   0.00
     3   1    -0.09  -0.11  -0.00     0.37  -0.24  -0.03     0.06  -0.02  -0.00
     4   1     0.11  -0.09   0.00     0.36   0.26  -0.04     0.06   0.02  -0.01
     5   8    -0.00   0.00  -0.00    -0.00   0.00  -0.00     0.01  -0.00   0.01
     6   1    -0.00  -0.01   0.00     0.02  -0.01   0.03    -0.10   0.05  -0.33
     7   1     0.00  -0.00  -0.00     0.01  -0.00  -0.00    -0.11   0.02   0.03
     8   8     0.04  -0.03   0.00     0.03  -0.03   0.01     0.00  -0.00   0.00
     9   1    -0.38   0.19   0.24    -0.28   0.15   0.18    -0.02   0.01   0.01
    10   1    -0.28   0.24  -0.31    -0.22   0.23  -0.25    -0.01   0.02  -0.02
    11   8    -0.00   0.00  -0.00     0.01   0.00  -0.00    -0.06  -0.00   0.02
    12   1    -0.00   0.00   0.00    -0.05  -0.03   0.01     0.55   0.36  -0.14
    13   1     0.00  -0.00  -0.00    -0.05   0.04   0.00     0.51  -0.38  -0.04
    14   8    -0.04  -0.04  -0.00     0.02   0.03   0.00     0.00   0.00   0.00
    15   1     0.38   0.20  -0.25    -0.27  -0.15   0.19    -0.02  -0.01   0.01
    16   1     0.27   0.28   0.30    -0.20  -0.25  -0.23    -0.01  -0.02  -0.02
                     34                     35                     36
                      A                      A                      A
 Frequencies --   2072.0240              2154.9067              3663.9522
 Red. masses --      1.1488                 1.0570                 1.0403
 Frc consts  --      2.9058                 2.8918                 8.2279
 IR Inten    --   3734.0911              2781.0285               130.3794
  Atom  AN      X      Y      Z        X      Y      Z        X      Y      Z
     1  80     0.00   0.00  -0.00    -0.00   0.00  -0.00     0.00   0.00   0.00
     2   8     0.01  -0.10   0.00    -0.05  -0.01   0.01    -0.00  -0.00   0.00
     3   1     0.24   0.55  -0.10     0.49   0.59  -0.06     0.00   0.00  -0.00
     4   1    -0.39   0.64   0.08     0.45  -0.43  -0.02     0.00  -0.00  -0.00
     5   8    -0.00  -0.00   0.00     0.00  -0.00  -0.00    -0.00   0.00  -0.00
     6   1     0.01   0.00  -0.00    -0.05   0.01   0.04     0.02  -0.00   0.00
     7   1     0.00   0.00  -0.00    -0.00  -0.00   0.00     0.00  -0.00   0.01
     8   8     0.01   0.00   0.00    -0.01   0.00  -0.00     0.00  -0.00   0.00
     9   1    -0.09   0.06   0.05     0.06  -0.02  -0.03    -0.00   0.00  -0.00
    10   1    -0.07   0.07  -0.06     0.04  -0.03   0.04    -0.00   0.00   0.00
    11   8    -0.00   0.00   0.00     0.00  -0.00  -0.00     0.05  -0.00  -0.00
    12   1     0.00   0.00  -0.00    -0.01  -0.01   0.00    -0.36   0.60  -0.06
    13   1    -0.00  -0.00   0.00    -0.01   0.01   0.00    -0.39  -0.60   0.06
    14   8    -0.00   0.00  -0.00    -0.01  -0.00  -0.00     0.00   0.00   0.00
    15   1     0.07   0.05  -0.04     0.07   0.04  -0.03    -0.00  -0.00  -0.00
    16   1     0.06   0.07   0.05     0.05   0.05   0.04    -0.00  -0.00   0.00
                     37                     38                     39
                      A                      A                      A
 Frequencies --   3707.7031              3708.7649              3730.9424
 Red. masses --      1.0405                 1.0406                 1.0664
 Frc consts  --      8.4275                 8.4328                 8.7457
 IR Inten    --     44.3491                89.1953               160.8539
  Atom  AN      X      Y      Z        X      Y      Z        X      Y      Z
     1  80    -0.00  -0.00  -0.00    -0.00  -0.00  -0.00     0.00   0.00  -0.00
     2   8     0.00   0.00  -0.00     0.00  -0.00  -0.00     0.00  -0.00  -0.00
     3   1    -0.01  -0.01  -0.00    -0.01  -0.00  -0.00    -0.00  -0.00   0.00
     4   1     0.01  -0.01   0.00    -0.01   0.01  -0.00    -0.00   0.00   0.00
     5   8    -0.00   0.00  -0.00    -0.00   0.00  -0.00    -0.01   0.01  -0.06
     6   1    -0.00   0.00   0.00    -0.00   0.00   0.00    -0.01   0.01  -0.00
     7   1     0.00  -0.00   0.00     0.01  -0.00   0.03     0.19  -0.09   0.97
     8   8     0.02  -0.01   0.00    -0.03   0.02  -0.00     0.00  -0.00   0.00
     9   1    -0.13   0.16  -0.39     0.17  -0.20   0.50    -0.00   0.01  -0.01
    10   1    -0.26   0.07   0.33     0.33  -0.09  -0.43    -0.01   0.00   0.01
    11   8     0.00   0.00  -0.00     0.00  -0.00  -0.00    -0.00  -0.00   0.00
    12   1    -0.00   0.00  -0.00    -0.00   0.00  -0.00     0.00  -0.01  -0.00
    13   1    -0.00  -0.00   0.00    -0.00  -0.00   0.00     0.01   0.01  -0.00
    14   8    -0.03  -0.02  -0.00    -0.02  -0.02  -0.00     0.00   0.00   0.00
    15   1     0.16   0.24   0.49     0.12   0.19   0.38    -0.00  -0.01  -0.01
    16   1     0.33   0.09  -0.43     0.25   0.07  -0.34    -0.01  -0.00   0.01
                     40                     41                     42
                      A                      A                      A
 Frequencies --   3764.8926              3814.6745              3815.5020
 Red. masses --      1.0850                 1.0842                 1.0844
 Frc consts  --      9.0613                 9.2955                 9.3013
 IR Inten    --    242.7359                22.7284               322.5637
  Atom  AN      X      Y      Z        X      Y      Z        X      Y      Z
     1  80     0.00  -0.00   0.00    -0.00   0.00   0.00    -0.00  -0.00   0.00
     2   8    -0.00   0.00  -0.00     0.00  -0.00  -0.00     0.00   0.00  -0.00
     3   1     0.00   0.00  -0.00     0.00  -0.00  -0.00     0.00  -0.00  -0.00
     4   1    -0.00   0.00   0.00    -0.00  -0.00   0.00     0.00   0.00  -0.00
     5   8     0.00  -0.00   0.00    -0.00   0.00  -0.00    -0.00   0.00  -0.00
     6   1    -0.00  -0.01   0.00    -0.00   0.00   0.00    -0.00   0.00   0.00
     7   1    -0.00   0.00  -0.00     0.00  -0.00   0.00     0.00  -0.00   0.00
     8   8     0.00   0.00   0.00    -0.01  -0.00   0.04     0.01   0.01  -0.06
     9   1     0.00  -0.00   0.00    -0.14   0.14  -0.31     0.22  -0.22   0.50
    10   1    -0.00   0.00   0.00     0.25  -0.08  -0.28    -0.40   0.12   0.44
    11   8    -0.00  -0.07   0.01     0.00  -0.00   0.00     0.00   0.00   0.00
    12   1    -0.40   0.58  -0.07    -0.00   0.00   0.00     0.00  -0.00   0.00
    13   1     0.42   0.56  -0.05     0.00   0.00  -0.00    -0.00  -0.00   0.00
    14   8    -0.00   0.00  -0.00     0.01  -0.01  -0.06     0.01  -0.01  -0.04
    15   1    -0.00   0.00  -0.00     0.20   0.26   0.49     0.13   0.16   0.30
    16   1     0.00   0.00  -0.00    -0.39  -0.12   0.45    -0.25  -0.07   0.28

 -------------------
 - Thermochemistry -
 -------------------
 Temperature   298.150 Kelvin.  Pressure   1.00000 Atm.
 Atom     1 has atomic number 80 and mass 201.97060
 Atom     2 has atomic number  8 and mass  15.99491
 Atom     3 has atomic number  1 and mass   1.00783
 Atom     4 has atomic number  1 and mass   1.00783
 Atom     5 has atomic number  8 and mass  15.99491
 Atom     6 has atomic number  1 and mass   1.00783
 Atom     7 has atomic number  1 and mass   1.00783
 Atom     8 has atomic number  8 and mass  15.99491
 Atom     9 has atomic number  1 and mass   1.00783
 Atom    10 has atomic number  1 and mass   1.00783
 Atom    11 has atomic number  8 and mass  15.99491
 Atom    12 has atomic number  1 and mass   1.00783
 Atom    13 has atomic number  1 and mass   1.00783
 Atom    14 has atomic number  8 and mass  15.99491
 Atom    15 has atomic number  1 and mass   1.00783
 Atom    16 has atomic number  1 and mass   1.00783
 Molecular mass:   292.02342 amu.
 Principal axes and moments of inertia in atomic units:
                           1         2         3
     Eigenvalues --   752.416642895.220003418.03105
           X            1.00000  -0.00108  -0.00088
           Y            0.00108   1.00000  -0.00295
           Z            0.00089   0.00295   1.00000
 This molecule is an asymmetric top.
 Rotational symmetry number  1.
 Warning -- assumption of classical behavior for rotation
[...]
     1          3.63633509         -1.75507024          0.46127654
     1          3.13048746         -1.74731222         -2.93538513
     8         -4.46865523         -4.93005561         -0.17112983
     1         -5.18939795         -7.04903756          0.27170646
     1         -5.69389748         -3.62477960          0.26362762
     8          3.68609281         -0.94979706         -5.42147934
     1          4.96570962         -1.86963235         -6.37180367
     1          3.91120141          0.83132311         -5.82256463
     8         -5.85139868         -9.22076209          0.58852065
     1         -6.55247385         -9.63943524          2.24441582
     1         -6.97598744         -9.90952375         -0.70428930
     8          4.89223746         -0.95646583          2.68335495
     1          6.39473764         -1.87489099          3.21794576
     1          5.22561280          0.82493585          2.99884267

 Electric dipole moment (dipole orientation):
 (Debye = 10**-18 statcoulomb cm , SI units = C m)
                  (au)            (Debye)         (10**-30 SI)
   Tot        0.329303D+00      0.837004D+00      0.279194D+01
   x          0.000000D+00      0.000000D+00      0.000000D+00
   y          0.000000D+00      0.000000D+00      0.000000D+00
   z          0.329303D+00      0.837004D+00      0.279194D+01

 Dipole polarizability, Alpha (dipole orientation).
 (esu units = cm**3 , SI units = C**2 m**2 J**-1)
 Alpha(0;0):
               (au)            (10**-24 esu)      (10**-40 SI)
   iso        0.514158D+02      0.761904D+01      0.847732D+01
   aniso      0.257773D+02      0.381980D+01      0.425010D+01
   xx         0.593221D+02      0.879062D+01      0.978089D+01
   yx         0.126788D+02      0.187880D+01      0.209044D+01
   yy         0.490139D+02      0.726312D+01      0.808131D+01
   zx        -0.252915D+01     -0.374781D+00     -0.417000D+00
   zy        -0.224813D+01     -0.333138D+00     -0.370667D+00
   zz         0.459114D+02      0.680337D+01      0.756977D+01

 ----------------------------------------------------------------------
 1\1\GINC-CTCP002\Freq\RMP2-Full\SDDAll\H10Hg1O5(2+)\FLOREZ\11-May-2022
 \0\\#p MP2(full) SDDAll freq\\file 'w5s4.log' Now we use Def2-QZVPPD, 
 but it was opt at: ---' #p ZORA-SR+SO PBE QZ4P'---\\2,1\Hg,-0.63615,1.
 234858,1.446637\O,1.216889,0.510294,1.529373\H,1.883966,0.743165,0.723
 411\H,1.358544,-0.447817,1.991457\O,-2.495783,2.00529,1.468385\H,-2.90
 1563,3.014341,1.992686\H,-3.063924,1.68402,0.744222\O,1.481505,-1.6575
 34,2.71033\H,2.049893,-1.671595,3.500957\H,1.621362,-2.50458,2.251472\
 O,-3.287901,3.997687,2.588777\H,-3.539471,4.769177,2.044652\H,-3.99567
 7,3.843327,3.244711\O,2.735123,1.179672,-0.319638\H,3.534263,1.684337,
 -0.084928\H,2.986693,0.583082,-1.046568\\Version=ES64L-G16RevA.03\Stat
 e=1-A\HF=-236.5039081\MP2=-237.2956471\RMSD=3.507e-09\RMSF=7.187e-03\Z
 eroPoint=0.1200261\Thermal=0.1291172\Dipole=0.0478612,0.2203986,-0.239
 9459\DipoleDeriv=1.866071,-0.4355913,-0.0328901,-0.3922847,1.127627,-0
 .0051357,0.0268944,-0.033688,0.9445367,-1.2427047,0.1368191,0.2065643,
 0.2483971,-1.1745704,0.3642974,0.3021321,0.3196298,-1.0230282,1.040859
 ,0.1665373,-0.5541008,0.3923811,0.3441753,-0.2254894,-0.9133935,-0.104
 0459,0.9657011,0.3082502,-0.1241333,0.1102303,-0.5106,1.4094176,-0.556
 6587,0.3234178,-0.611235,0.6476652,-1.1184679,0.4158041,0.2054245,0.52
 12688,-1.1927893,-0.2166535,0.1995816,-0.1743343,-0.6721681,0.6777203,
 -0.4818112,-0.2617822,-0.8791095,1.5402608,0.5891099,-0.5237085,0.6752
 454,0.6831269,0.3542397,0.046102,-0.0122553,0.136129,0.3194424,-0.0469
 271,0.0878295,-0.0988008,0.3419552,-0.6887687,-0.0572923,0.0945808,0.1
 182496,-0.9742962,0.2716446,-0.01591,0.3165205,-0.7329752,0.4029222,0.
 0358878,-0.0872146,0.036987,0.3414268,0.011832,-0.0466793,-0.0195391,0
 .4248987,0.4327753,0.0958031,-0.0305655,0.0522451,0.3530349,-0.0147835
 ,-0.0403365,-0.0001673,0.3638869,-0.7108729,0.1429496,0.0328627,0.3616
 468,-1.0986367,-0.3308378,0.1925715,-0.4030146,-0.7376844,0.4097134,0.
 0888188,0.0274281,0.0205084,0.4782561,0.0065553,0.0485096,-0.0046145,0
 .379856,0.4122989,0.0182205,0.0433519,0.0291644,0.3627633,0.0154163,-0
 .021365,0.047079,0.50733,-0.8149368,0.0090352,0.1472833,-0.1143356,-0.
 6837773,0.2456965,0.3067239,0.1792102,-0.8893453,0.3293965,-0.0437422,
 0.0265852,0.0060305,0.4603367,-0.0504312,0.0328146,-0.0404907,0.377384
 2,0.3415045,-0.0134073,0.0844975,-0.0266778,0.3873289,-0.0576351,0.040
 9177,-0.0477545,0.4188603\Polar=59.6526594,-11.687377,51.1339755,-4.39
 21266,-0.0152904,43.4607808\PG=C01 [X(H10Hg1O5)]\NImag=6\\0.40322742,-
 0.14973691,0.09764874,0.00897324,-0.00270220,0.03809371,-0.18519710,0.
 06070432,-0.00300309,0.35060626,0.06760309,-0.05304621,0.01337987,-0.0
 7544262,0.30573971,0.00262252,0.01076864,-0.02658880,-0.10631872,-0.14
 828542,0.24876594,-0.02065532,0.00552760,0.00714782,-0.09596166,-0.006
 19781,0.05839804,0.11000672,0.00376357,0.00558610,-0.00754060,0.002881
 54,-0.06254440,0.02186672,0.00280454,0.07930909,0.00162708,-0.00785150
 ,0.00826529,0.06438611,0.03764267,-0.11671048,-0.04182980,-0.01776705,
 0.10992584,-0.01001077,0.01779692,-0.00754552,-0.06119746,0.01913479,0
 .00862925,0.01537772,-0.01519801,-0.00266024,0.08110374,0.01311401,-0.
 00129485,-0.00390523,0.01776926,-0.14520831,0.05984072,-0.01254524,0.0
 0400891,0.00384580,-0.01753191,0.13130189,-0.00836617,-0.00070465,0.00
 454737,0.01012116,0.04065743,-0.06579768,-0.00024258,0.01545690,-0.004
 01376,-0.00190233,-0.03333707,0.08399492,-0.17091385,0.06503247,0.0040
 5610,0.00410812,0.00252399,0.00035762,0.00359864,0.00183530,-0.0042731
 1,-0.00012598,-0.00583677,0.00348537,0.40204922,0.05470257,-0.05085080
 ,-0.01189055,0.00312780,0.00657978,-0.00058466,-0.00230139,-0.00142359
 ,0.00448635,-0.00124322,0.00309317,-0.00133986,-0.01231249,0.21731022,
 -0.01409474,-0.00403622,-0.02614799,-0.00024396,-0.00041455,0.00816233
 ,-0.00089106,0.00097901,-0.00032042,0.00058034,0.00190720,-0.00040821,
 0.20252490,0.17283866,0.34092285,-0.01003255,0.00848563,0.00231550,0.0
 0241865,-0.00140177,-0.00028842,-0.00126581,-0.00053594,0.00136618,-0.
 00034531,0.00175371,-0.00111379,-0.04499931,0.00131543,-0.00855497,0.0
 7543590,0.01489827,0.00133814,0.00691186,-0.00642403,0.00242244,-0.000
 58342,0.00333259,0.00179670,-0.00408492,0.00039388,-0.00453766,0.00265
 548,-0.01400912,-0.02528661,-0.00641209,0.01436561,0.03748721,0.009307
 48,0.00207242,0.00550255,-0.00386278,0.00107235,0.00005510,0.00173867,
 0.00092816,-0.00236391,0.00029546,-0.00277563,0.00172463,-0.02337804,0
 .01345744,-0.03601913,0.01075396,-0.02401313,0.07320644,-0.01591757,-0
 .00289877,-0.01436542,0.00113773,0.00037670,0.00129735,-0.00051077,0.0
 0010994,0.00022474,-0.00023635,0.00070827,-0.00015749,-0.19172720,-0.0
 7634920,-0.19807166,0.01130197,-0.00360688,0.00181610,0.19893887,0.009
 88848,0.00411670,0.00585408,0.00087936,-0.00082722,-0.00103317,-0.0002
 0673,-0.00033964,0.00042692,0.00008507,0.00073288,-0.00032546,-0.07343
 946,-0.08417693,-0.12072030,-0.01832885,0.00710450,-0.01197369,0.07573
 509,0.08115175,0.00486819,-0.00066490,0.00296413,0.00131100,-0.0013142
 9,-0.00018390,-0.00056571,-0.00028491,0.00090065,0.00000932,0.00068915
 ,-0.00047638,-0.20421282,-0.13039095,-0.27494169,-0.00967269,0.0043172
 6,-0.00296850,0.20633633,0.13076130,0.27516991,0.00004365,-0.00242276,
 0.00145998,0.01077686,0.01018260,-0.00585456,-0.00316255,0.00143919,0.
 00131889,-0.02129121,-0.00062300,-0.00603549,0.00000683,0.00046764,-0.
 00016282,0.00017036,-0.00046524,-0.00018941,0.00003075,-0.00013679,0.0
 0011683,0.22200316,-0.00821137,0.00012955,0.00125186,0.01111417,-0.049
 06283,0.03574697,0.00773099,-0.00301908,-0.00434812,-0.01126011,-0.001
 07138,-0.01872482,0.00263049,-0.00114538,-0.00065941,-0.00086712,0.002
 13051,0.00128660,-0.00029638,-0.00042386,-0.00037805,-0.07948433,0.491
 00021,0.00530794,-0.00056470,-0.00232243,-0.00653671,0.03449176,-0.004
 63894,-0.00313934,-0.00005360,0.00212598,0.00108426,-0.02078230,-0.027
 15999,-0.00164861,0.00074592,0.00051820,0.00056054,-0.00143764,-0.0009
 7930,0.00016678,0.00017169,0.00017085,0.21691350,0.16988601,0.51265226
 ,0.00015401,0.00014738,-0.00074153,-0.00018282,-0.00169041,0.00065299,
 0.00072803,0.00025390,-0.00013817,0.00069952,0.00027407,0.00030043,0.0
 0001127,-0.00010425,0.00011375,-0.00005158,0.00014337,0.00001349,0.000
 00148,0.00002615,-0.00005664,-0.17424285,-0.00168519,-0.23751084,0.167
 27529,0.00004985,0.00012653,0.00057383,-0.00077818,-0.00806302,0.00084
 236,0.00055624,-0.00024844,0.00024544,0.00675352,0.01254438,0.00623049
 ,-0.00002759,0.00000611,-0.00003616,0.00004609,-0.00002204,0.00001170,
 0.00003145,0.00004687,0.00002048,0.02592611,-0.05715523,0.01827993,-0.
 00665903,0.05343888,-0.00076091,0.00041390,0.00051812,0.00155804,-0.00
 161922,0.00073840,-0.00030845,0.00038652,-0.00018603,-0.00534379,0.001
 77471,-0.00389023,0.00039966,-0.00028052,-0.00019582,-0.00015456,0.000
 41310,0.00029553,-0.00005748,-0.00002773,-0.00002632,-0.20477170,-0.02
 281160,-0.33136403,0.23114634,0.01723389,0.35219972,0.00081111,0.00062
 537,0.00010170,-0.00055601,0.00102437,-0.00099530,0.00045057,-0.000038
 57,-0.00009890,0.00136147,-0.00263339,0.00287484,-0.00017294,-0.000184
 67,-0.00000094,-0.00002398,0.00013202,0.00004783,0.00000625,0.00013662
 ,-0.00001809,-0.03557375,0.08300431,0.02416884,0.00585748,-0.02568234,
 -0.02190829,0.02794950,0.00062905,-0.00051582,-0.00006812,-0.00055292,
 -0.00040061,0.00296976,0.00037373,-0.00111465,0.00004857,0.00217025,-0
 .00356415,-0.00857777,-0.00032145,0.00021149,0.00005950,0.00014480,-0.
 00031411,-0.00018404,0.00005637,0.00004844,0.00004957,0.04467090,-0.37
 959119,-0.20172854,0.00942859,-0.00067436,0.00470975,-0.05629364,0.385
 68427,0.00023004,0.00032274,0.00036966,-0.00124285,0.00594650,-0.00624
 415,-0.00075426,0.00095975,0.00066836,0.00119444,-0.00233978,0.0124050
 3,-0.00009810,-0.00000186,-0.00004767,-0.00000461,-0.00000520,0.000030
 61,-0.00001245,0.00003438,0.00005895,-0.00155264,-0.16382870,-0.148370
 71,0.00597455,-0.04359243,-0.01793902,-0.00430500,0.20239616,0.1596417
 7,0.00355600,-0.00158926,0.00006382,-0.00118602,0.00064578,0.00012195,
 0.00065472,0.00025720,-0.00084457,0.00013064,-0.00108437,0.00059104,-0
 .00035401,0.03133550,0.01689779,-0.03150556,-0.00392433,0.01113869,-0.
 00368089,0.00467679,0.00188491,-0.00006065,0.00055512,-0.00030226,0.00
 002416,-0.00006296,0.00007556,-0.00001183,-0.00009640,-0.00000904,0.36
 201399,-0.00979184,-0.00044591,-0.00315186,0.00340522,-0.00111631,0.00
 005901,-0.00183067,-0.00101967,0.00230114,-0.00024930,0.00239924,-0.00
 139572,0.03508964,-0.05681379,-0.03944466,-0.02105576,-0.03142841,0.01
 602134,0.00484802,-0.00575655,-0.00171676,0.00029284,-0.00111268,0.000
 73400,-0.00010912,0.00001141,-0.00020727,-0.00008972,0.00016276,0.0000
 1190,-0.08658296,0.47885841,-0.00629722,-0.00008375,-0.00277786,0.0020
 2729,-0.00070989,0.00015912,-0.00096286,-0.00050724,0.00121278,-0.0001
 5774,0.00159650,-0.00102098,0.02044370,-0.04193623,-0.00643565,-0.0023
 1876,0.02226533,-0.05107035,0.00201297,-0.00086643,0.00021142,0.000100
 84,-0.00072295,0.00060133,0.00000557,-0.00003017,-0.00019521,-0.000030
 31,0.00009605,-0.00003043,-0.20337645,-0.22310369,0.47257722,0.0004147
 7,0.00080262,-0.00006160,-0.00008673,-0.00020224,0.00004234,0.00001731
 ,0.00009256,-0.00003020,-0.00000222,0.00016290,-0.00007816,-0.00116766
 ,0.00132972,0.00245224,0.00234708,-0.00029773,-0.00955267,0.00026191,0
 .00030557,0.00001565,-0.00002892,-0.00009919,0.00004139,0.00001118,0.0
 0002731,-0.00000770,0.00002421,0.00002100,0.00000301,-0.07000243,0.121
 32722,-0.05376511,0.05990559,0.00131787,-0.00047344,-0.00001339,-0.000
 57429,0.00021461,0.00010474,0.00035364,0.00019668,-0.00042441,0.000062
 62,-0.00038002,0.00021773,-0.00118191,0.00071231,-0.00273729,0.0049911
 2,-0.00933786,0.01422027,0.00056938,-0.00136588,-0.00033855,-0.0000891
 3,0.00017660,-0.00009800,0.00004217,-0.00000417,0.00002412,0.00003292,
 -0.00002590,-0.00000940,0.07833830,-0.31063081,0.19472163,-0.09303070,
 0.32332931,-0.00027840,-0.00035662,0.00011942,0.00022413,-0.00000227,-
 0.00007457,-0.00011999,-0.00007791,0.00019992,-0.00000657,0.00005646,-
 0.00000169,0.00338317,-0.00518578,-0.00593062,-0.00302160,-0.00148163,
 0.01732131,0.00027667,-0.00157180,-0.00020683,0.00001588,-0.00003635,-
 0.00002053,-0.00001519,0.00001696,0.00001613,-0.00000187,0.00000974,0.
 00001461,-0.02293885,0.18794108,-0.18278731,0.03521917,-0.21037700,0.1
 8571589,-0.00039116,0.00028915,0.00048213,0.00025970,-0.00017215,-0.00
 011194,-0.00017643,-0.00006589,0.00023705,-0.00003679,0.00026618,-0.00
 010334,0.00102833,-0.00084512,-0.00045933,-0.00390896,-0.00321859,0.00
 261262,0.00029679,0.00020208,-0.00029204,0.00002268,-0.00016225,0.0000
 3247,-0.00002214,0.00004401,0.00000273,0.00001020,0.00003508,0.0000138
 0,-0.25933505,-0.04598986,0.24193945,0.00832983,0.00930860,-0.01279546
 ,0.25385865,0.00017318,-0.00010930,-0.00048285,-0.00004016,0.00000838,
 0.00009566,0.00011352,0.00006891,-0.00011708,0.00002246,0.00001484,-0.
 00002304,0.00067909,-0.00879232,-0.00110667,0.01087879,0.01930626,-0.0
 0977243,0.00070740,-0.00040962,-0.00088723,-0.00008214,-0.00001112,0.0
 0004168,0.00004891,0.00000113,-0.00001416,0.00003733,0.00000059,-0.000
 01529,-0.02234319,-0.07347337,0.04909344,-0.03042472,-0.00234896,0.031
 03048,0.04027118,0.06576289,0.00109486,-0.00056823,0.00073384,-0.00048
 107,0.00034420,-0.00015766,0.00022863,0.00009479,-0.00023773,0.0000314
 0,-0.00047759,0.00033190,-0.00265123,0.00161624,0.00061675,0.01066787,
 -0.00015299,-0.00566035,0.00059869,-0.00053104,-0.00031623,-0.00000647
 ,0.00021315,-0.00021846,-0.00002212,0.00001592,0.00007934,0.00000381,-
 0.00002518,0.00002505,0.19640212,0.06285965,-0.22995706,0.02569231,0.0
 0453960,-0.01430070,-0.23148142,-0.06789213,0.24895989,0.00519490,-0.0
 0248593,0.00002541,-0.02173210,-0.01340111,0.03756248,-0.01119304,-0.0
 0438960,-0.01305718,-0.00508686,0.00621070,-0.00057943,-0.00158759,0.0
 0121907,0.00019252,0.00068916,-0.00175338,-0.00104864,0.00022922,0.000
 21452,0.00021799,0.00156361,-0.00286299,0.00108733,-0.00044473,-0.0002
 6467,0.00016824,-0.00035265,-0.00021021,0.00037169,-0.00037451,0.00096
 394,0.00057743,0.00002183,-0.00019015,0.00002222,0.00009297,-0.0000510
 7,-0.00015759,0.45246695,0.00189430,-0.00354588,0.00176181,-0.01352370
 ,0.00900531,0.01542772,0.00317449,-0.02841389,-0.01475830,0.00025927,0
 .00080659,-0.00115072,-0.00081474,0.00100353,-0.00024986,0.00023769,-0
 .00105850,-0.00048366,-0.00001464,-0.00000652,0.00020460,-0.00069031,-
 0.00044546,0.00097519,0.00018063,0.00002398,-0.00050400,0.00040376,0.0
 0052828,-0.00048659,-0.00007966,0.00061518,0.00023681,-0.00012325,-0.0
 0013077,0.00008303,0.00001470,-0.00005618,-0.00001570,0.15412328,0.374
 27941,-0.00515037,0.00414253,-0.00366599,0.03905148,0.01639999,-0.0297
 4430,-0.02314075,-0.01147457,-0.00955903,0.00420617,-0.00560130,0.0002
 6377,0.00190763,-0.00179484,0.00033009,-0.00065466,0.00186932,0.001000
 16,-0.00007298,-0.00020856,-0.00053538,-0.00027024,0.00316485,-0.00133
 954,-0.00009837,-0.00014161,0.00034172,-0.00027523,-0.00020326,-0.0004
 0600,0.00041151,-0.00104418,-0.00048072,0.00000177,0.00020007,-0.00013
 825,-0.00013030,0.00005761,0.00007307,-0.03743169,0.28529618,0.3975032
 8,-0.00049747,-0.00044007,0.00011477,0.00048788,0.00032816,0.00122368,
 -0.00349903,-0.00234024,-0.00517879,-0.00006202,-0.00029671,0.00052044
 ,0.00022724,-0.00009520,-0.00008106,-0.00014625,0.00023325,0.00017014,
 -0.00005699,-0.00005185,-0.00002593,-0.00009935,0.00016673,-0.00013576
 ,0.00007493,-0.00000792,0.00000187,0.00004819,-0.00001525,0.00002036,0
 .00010116,-0.00012140,-0.00010681,-0.00004465,0.00002464,0.00001383,-0
 .00002759,0.00000296,0.00004254,-0.33957369,-0.21785350,-0.09386839,0.
 33637864,-0.00041445,0.00107587,0.00002913,0.00211958,-0.00030912,-0.0
 0124028,-0.00584225,-0.00046728,0.00128678,-0.00051237,0.00014013,0.00
 000741,0.00026639,-0.00042304,-0.00002139,-0.00007567,0.00042696,0.000
 19612,-0.00001284,0.00003044,-0.00005073,0.00056798,0.00011617,-0.0003
 5710,-0.00021218,-0.00007412,0.00029799,-0.00026899,-0.00021995,0.0001
 7559,-0.00000214,-0.00025622,-0.00009391,0.00007268,0.00006161,-0.0000
 2676,0.00000831,0.00002878,0.00000371,-0.17179049,-0.15155349,-0.07814
 989,0.20818519,0.16439977,0.00009539,0.00019946,0.00021582,0.00283694,
 0.00009383,-0.00764405,0.00322557,0.00447997,0.01319652,0.00076976,-0.
 00017012,0.00022220,0.00001384,0.00002463,-0.00004498,0.00001020,0.000
 01062,0.00004799,-0.00000398,-0.00001586,0.00006112,-0.00044538,0.0000
 2278,-0.00009654,0.00019241,0.00023515,-0.00011793,0.00013060,0.000109
 69,0.00004608,-0.00003772,-0.00001058,-0.00005270,0.00001578,-0.000002
 42,0.00003629,0.00002389,0.00000033,0.00002661,-0.05777771,-0.06754771
 ,-0.07135858,0.08548946,0.08849216,0.07203937,0.00021392,0.00016223,0.
 00097670,-0.00369531,-0.00331139,0.00266070,0.00559089,0.00913049,-0.0
 0104910,-0.00027812,0.00029230,0.00068550,0.00001889,-0.00006219,-0.00
 020099,-0.00008380,0.00020031,0.00013711,-0.00007521,0.00001397,0.0000
 8370,-0.00015862,-0.00027289,-0.00008953,0.00010676,0.00004811,-0.0000
 3955,0.00017217,-0.00003989,0.00017106,0.00003030,-0.00010626,-0.00009
 198,-0.00000112,0.00002492,0.00002284,-0.00000102,0.00000646,0.0000376
 8,-0.07991345,0.07281170,0.11551442,0.00668898,-0.03208875,-0.03453905
 ,0.07138475,0.00012035,0.00026058,-0.00000761,-0.00466536,-0.00339221,
 0.00400465,0.00495673,0.00762426,-0.00093230,-0.00068389,0.00101435,0.
 00035368,-0.00011382,-0.00000415,0.00005422,0.00004624,-0.00002754,-0.
 00006382,0.00003608,0.00007466,-0.00001599,0.00044645,-0.00051480,-0.0
 0030429,-0.00008498,0.00004210,0.00021052,-0.00020538,-0.00021509,0.00
 043225,-0.00004343,0.00000673,0.00004448,0.00003623,0.00000669,-0.0000
 2165,0.00001458,0.00000910,-0.00002440,0.03466808,-0.20105157,-0.21251
 232,0.01228124,-0.01297650,-0.02592194,-0.04680912,0.20914338,0.000821
 07,-0.00038690,0.00017317,0.00017304,0.00231704,-0.00009636,0.00121609
 ,-0.00744595,-0.00310398,0.00081580,-0.00032152,-0.00072090,-0.0003100
 8,0.00023603,-0.00005803,0.00010981,-0.00027195,-0.00012278,0.00001184
 ,0.00002569,0.00011820,-0.00063722,-0.00006223,0.00044186,0.00018332,0
 .00009420,-0.00027436,0.00030631,0.00033811,-0.00022215,-0.00007851,0.
 00014659,0.00004642,0.00001178,-0.00002769,0.00003692,0.00002968,-0.00
 000832,0.00000177,0.06982692,-0.21878877,-0.28228431,0.01179966,-0.010
 54885,-0.00657721,-0.08427952,0.23470452,0.29264175\\0.00011275,-0.003
 25874,-0.00623970,-0.00799709,0.01443409,0.01075313,0.00304298,-0.0042
 1169,-0.00772268,0.00101079,-0.00872337,-0.00298216,0.00367153,-0.0076
 2758,0.00565726,-0.00652988,0.00326081,-0.00547149,0.00828220,0.003031
 25,0.00237882,-0.01217327,0.00310149,0.00381743,0.00159150,-0.00502537
 ,-0.01060963,0.00731458,0.00680086,0.00579687,0.01688365,0.00436715,0.
 01125784,-0.00754713,-0.00890503,0.00161993,-0.00261485,0.00180147,-0.
 01140693,-0.00979746,0.00836321,-0.00190004,-0.00110041,-0.01100530,-0
 .00423048,0.00585013,0.00359673,0.00928183\\\@


 IF I AM NOT FOR MYSELF, WHO WILL BE?
 BUT IF I AM ONLY FOR MYSELF, WHAT AM I?
 THOUGH A SEEKER SINCE MY BIRTH,
 HERE IS ALL I'VE LEARNED ON EARTH,
 THIS IS THE GIST OF WHAT I KNOW:
 GIVE ADVICE AND BUY A FOE.

 PRESSED FOR RULES AND VERITIES,
 ALL I RECOLLECT ARE THESE:
 FEED A COLD TO STARVE A FEVER,
 ARGUE WITH NO TRUE-BELIEVER.
 THINK-TOO-LONG IS NEVER-ACT,
 SCRATCH A MYTH AND FIND A FACT.

 STITCH IN TIME SAVES TWENTY STITCHES,
 GIVE THE RICH TO PLEASE THEM, RICHES.
 GIVE TO LOVE YOU HEARTH AND HALL,
 BUT DO NOT GIVE ADVICE AT ALL.

                                  -- HILLEL
 Job cpu time:       0 days  0 hours 28 minutes 44.1 seconds.
 Elapsed time:       0 days  0 hours  1 minutes  2.5 seconds.
 File lengths (MBytes):  RWF=   1771 Int=      0 D2E=      0 Chk=      3 Scr=      1
 Normal termination of Gaussian 16 at Wed May 11 21:30:44 2022.
