 Entering Gaussian System, Link 0=g16
 Initial command:
 /cm/shared/apps/gaussian/intel/EM64T/SSE4_2-enabled/binary//g16/l1.exe "/scratch/florez/25750/Gau-32722.inp" -scrdir="/scratch/florez/25750/"
 Entering Link 1 = /cm/shared/apps/gaussian/intel/EM64T/SSE4_2-enabled/binary//g16/l1.exe PID=     32724.
  
 Copyright (c) 1988,1990,1992,1993,1995,1998,2003,2009,2016,
            Gaussian, Inc.  All Rights Reserved.
  
 This is part of the Gaussian(R) 16 program.  It is based on
 the Gaussian(R) 09 system (copyright 2009, Gaussian, Inc.),
 the Gaussian(R) 03 system (copyright 2003, Gaussian, Inc.),
 the Gaussian(R) 98 system (copyright 1998, Gaussian, Inc.),
 the Gaussian(R) 94 system (copyright 1995, Gaussian, Inc.),
 the Gaussian 92(TM) system (copyright 1992, Gaussian, Inc.),
 the Gaussian 90(TM) system (copyright 1990, Gaussian, Inc.),
 the Gaussian 88(TM) system (copyright 1988, Gaussian, Inc.),
 the Gaussian 86(TM) system (copyright 1986, Carnegie Mellon
 University), and the Gaussian 82(TM) system (copyright 1983,
 Carnegie Mellon University). Gaussian is a federally registered
 trademark of Gaussian, Inc.
  
 This software contains proprietary and confidential information,
 including trade secrets, belonging to Gaussian, Inc.
  
 This software is provided under written license and may be
 used, copied, transmitted, or stored only in accord with that
 written license.
  
 The following legend is applicable only to US Government
 contracts under FAR:
  
                    RESTRICTED RIGHTS LEGEND
  
 Use, reproduction and disclosure by the US Government is
 subject to restrictions as set forth in subparagraphs (a)
 and (c) of the Commercial Computer Software - Restricted
 Rights clause in FAR 52.227-19.
  
 Gaussian, Inc.
 340 Quinnipiac St., Bldg. 40, Wallingford CT 06492
  
  
 ---------------------------------------------------------------
 Warning -- This program may not be used in any manner that
 competes with the business of Gaussian, Inc. or will provide
 assistance to any competitor of Gaussian, Inc.  The licensee
 of this program is prohibited from giving any competitor of
 Gaussian, Inc. access to this program.  By using this program,
 the user acknowledges that Gaussian, Inc. is engaged in the
 business of creating and licensing software in the field of
 computational chemistry and represents and warrants to the
 licensee that it is not a competitor of Gaussian, Inc. and that
 it will not use this program in any manner prohibited above.
 ---------------------------------------------------------------
  

 Cite this work as:
 Gaussian 16, Revision A.03,
 M. J. Frisch, G. W. Trucks, H. B. Schlegel, G. E. Scuseria, 
 M. A. Robb, J. R. Cheeseman, G. Scalmani, V. Barone, 
 G. A. Petersson, H. Nakatsuji, X. Li, M. Caricato, A. V. Marenich, 
 J. Bloino, B. G. Janesko, R. Gomperts, B. Mennucci, H. P. Hratchian, 
 J. V. Ortiz, A. F. Izmaylov, J. L. Sonnenberg, D. Williams-Young, 
 F. Ding, F. Lipparini, F. Egidi, J. Goings, B. Peng, A. Petrone, 
 T. Henderson, D. Ranasinghe, V. G. Zakrzewski, J. Gao, N. Rega, 
 G. Zheng, W. Liang, M. Hada, M. Ehara, K. Toyota, R. Fukuda, 
 J. Hasegawa, M. Ishida, T. Nakajima, Y. Honda, O. Kitao, H. Nakai, 
 T. Vreven, K. Throssell, J. A. Montgomery, Jr., J. E. Peralta, 
 F. Ogliaro, M. J. Bearpark, J. J. Heyd, E. N. Brothers, K. N. Kudin, 
 V. N. Staroverov, T. A. Keith, R. Kobayashi, J. Normand, 
 K. Raghavachari, A. P. Rendell, J. C. Burant, S. S. Iyengar, 
 J. Tomasi, M. Cossi, J. M. Millam, M. Klene, C. Adamo, R. Cammi, 
 J. W. Ochterski, R. L. Martin, K. Morokuma, O. Farkas, 
 J. B. Foresman, and D. J. Fox, Gaussian, Inc., Wallingford CT, 2016.
 
 ******************************************
 Gaussian 16:  ES64L-G16RevA.03 25-Dec-2016
                11-May-2022 
 ******************************************
 %chk=w5s5.chk
 %nproc=28
 Will use up to   28 processors via shared memory.
 %mem=500gb
 ------------------------
 #p MP2(full) SDDAll freq
 ------------------------
 1/10=4,30=1,38=1/1,3;
 2/12=2,17=6,18=5,40=1/2;
 3/5=17,6=6,11=9,25=1,30=1,71=2,140=1/1,2,3;
 4//1;
 5/5=2,38=5,98=1/2;
 8/6=3,8=1,10=90,19=11/1;
 9/15=3,16=-3/6;
 11/6=1,8=1,15=11,17=11,24=-1,27=1,28=-2,29=300,32=6,42=3/1,2,10;
 10/6=2,21=1/2;
 8/6=4,8=1,10=90,19=11/11,4;
 10/5=1,20=4/2;
 11/12=2,14=11,16=1,28=-2,42=3/2,10,12;
 6/7=2,8=2,9=2,10=2/1;
 7/8=1,10=1,12=2,25=1,44=2/1,2,3,16;
 1/10=4,30=1/3;
 99//99;
 Leave Link    1 at Wed May 11 21:30:44 2022, MaxMem= 67108864000 cpu:               1.1 elap:               0.0
 (Enter /cm/shared/apps/gaussian/intel/EM64T/SSE4_2-enabled/binary//g16/l101.exe)
 ----------------------------------------------------------------------
 file 'w5s5.log' Now we use Def2-QZVPPD, but it was opt at: ---' #p ZOR
 A-SR+SO PBE QZ4P'---
 ----------------------------------------------------------------------
 Symbolic Z-matrix:
 Charge =  2 Multiplicity = 1
 Hg(Fragment=1)       -0.79328  -2.69855   0.7785 
 O(Fragment=2)         0.63365  -3.948     2.42056 
 H(Fragment=2)         1.16763  -4.73352   2.20971 
 H(Fragment=2)         1.04546  -3.55493   3.20989 
 O(Fragment=2)        -2.28828  -2.69044   2.17848 
 H(Fragment=2)        -2.72538  -3.64047   2.63881 
 H(Fragment=2)        -2.99195  -2.04188   1.98842 
 O(Fragment=2)        -3.15392  -4.71744   3.21504 
 H(Fragment=2)        -4.01378  -5.07949   2.9299 
 H(Fragment=2)        -3.15233  -4.71132   4.19067 
 O(Fragment=2)         0.57401  -2.61852  -0.74716 
 H(Fragment=2)         0.15791  -2.62835  -1.62988 
 H(Fragment=2)         1.48222  -1.93147  -0.74666 
 O(Fragment=2)         2.57286  -1.22577  -0.69844 
 H(Fragment=2)         3.39498  -1.6812   -0.96055 
 H(Fragment=2)         2.57882  -0.34913  -1.12642 
 
 ITRead=  0  0  0  0  0  0  0  0  0  0  0  0  0  0  0  0
 MicOpt= -1 -1 -1 -1 -1 -1 -1 -1 -1 -1 -1 -1 -1 -1 -1 -1
 NAtoms=     16 NQM=       16 NQMF=       0 NMMI=      0 NMMIF=      0
                NMic=       0 NMicF=      0.
                    Isotopes and Nuclear Properties:
 (Nuclear quadrupole moments (NQMom) in fm**2, nuclear magnetic moments (NMagM)
  in nuclear magnetons)

  Atom         1           2           3           4           5           6           7           8           9          10
 IAtWgt=         202          16           1           1          16           1           1          16           1           1
 AtmWgt= 201.9706000  15.9949146   1.0078250   1.0078250  15.9949146   1.0078250   1.0078250  15.9949146   1.0078250   1.0078250
 NucSpn=           0           0           1           1           0           1           1           0           1           1
 AtZEff=  -0.0000000  -0.0000000  -0.0000000  -0.0000000  -0.0000000  -0.0000000  -0.0000000  -0.0000000  -0.0000000  -0.0000000
 NQMom=    0.0000000   0.0000000   0.0000000   0.0000000   0.0000000   0.0000000   0.0000000   0.0000000   0.0000000   0.0000000
 NMagM=    0.0000000   0.0000000   2.7928460   2.7928460   0.0000000   2.7928460   2.7928460   0.0000000   2.7928460   2.7928460
 AtZNuc=  80.0000000   8.0000000   1.0000000   1.0000000   8.0000000   1.0000000   1.0000000   8.0000000   1.0000000   1.0000000

  Atom        11          12          13          14          15          16
 IAtWgt=          16           1           1          16           1           1
 AtmWgt=  15.9949146   1.0078250   1.0078250  15.9949146   1.0078250   1.0078250
 NucSpn=           0           1           1           0           1           1
 AtZEff=  -0.0000000  -0.0000000  -0.0000000  -0.0000000  -0.0000000  -0.0000000
 NQMom=    0.0000000   0.0000000   0.0000000   0.0000000   0.0000000   0.0000000
 NMagM=    0.0000000   2.7928460   2.7928460   0.0000000   2.7928460   2.7928460
 AtZNuc=   8.0000000   1.0000000   1.0000000   8.0000000   1.0000000   1.0000000
 Leave Link  101 at Wed May 11 21:30:44 2022, MaxMem= 67108864000 cpu:               2.6 elap:               0.1
 (Enter /cm/shared/apps/gaussian/intel/EM64T/SSE4_2-enabled/binary//g16/l103.exe)

 GradGradGradGradGradGradGradGradGradGradGradGradGradGradGradGradGradGrad
 Berny optimization.
 Initialization pass.
 Trust Radius=3.00D-01 FncErr=1.00D-07 GrdErr=1.00D-07 EigMax=2.50D+02 EigMin=1.00D-04
 Number of steps in this run=      2 maximum allowed number of steps=      2.
 GradGradGradGradGradGradGradGradGradGradGradGradGradGradGradGradGradGrad

 Leave Link  103 at Wed May 11 21:30:44 2022, MaxMem= 67108864000 cpu:               1.4 elap:               0.1
 (Enter /cm/shared/apps/gaussian/intel/EM64T/SSE4_2-enabled/binary//g16/l202.exe)
                          Input orientation:                          
 ---------------------------------------------------------------------
 Center     Atomic      Atomic             Coordinates (Angstroms)
 Number     Number       Type             X           Y           Z
 ---------------------------------------------------------------------
      1         80           0       -0.793279   -2.698549    0.778496
      2          8           0        0.633647   -3.947996    2.420562
      3          1           0        1.167628   -4.733518    2.209705
      4          1           0        1.045462   -3.554927    3.209892
      5          8           0       -2.288279   -2.690439    2.178477
      6          1           0       -2.725379   -3.640474    2.638811
      7          1           0       -2.991947   -2.041880    1.988415
      8          8           0       -3.153923   -4.717440    3.215036
      9          1           0       -4.013776   -5.079491    2.929903
     10          1           0       -3.152332   -4.711317    4.190670
     11          8           0        0.574014   -2.618524   -0.747158
     12          1           0        0.157906   -2.628346   -1.629879
     13          1           0        1.482217   -1.931466   -0.746655
     14          8           0        2.572856   -1.225767   -0.698435
     15          1           0        3.394977   -1.681204   -0.960554
     16          1           0        2.578821   -0.349132   -1.126423
 ---------------------------------------------------------------------
                    Distance matrix (angstroms):
                    1          2          3          4          5
     1  Hg   0.000000
     2  O    2.508708   0.000000
     3  H    3.167746   0.972955   0.000000
     4  H    3.166392   0.973209   1.550605   0.000000
     5  O    2.048179   3.190252   4.014778   3.595134   0.000000
     6  H    2.842711   3.380127   4.066249   3.814799   1.142598
     7  H    2.594082   4.118854   4.959430   4.481293   0.975654
     8  O    3.947821   3.945747   4.436976   4.357327   2.435678
     9  H    4.546321   4.810223   5.242645   5.291368   3.041307
    10  H    4.610781   4.248480   4.752554   4.463254   2.979842
    11  O    2.050247   3.435914   3.683560   4.093575   4.093560
    12  H    2.590357   4.286476   4.493739   5.006964   4.526726
    13  H    2.844712   3.849380   4.085404   4.298912   4.832088
    14  O    3.959959   4.571565   4.768256   4.799264   5.835454
    15  H    4.647663   4.918865   4.932367   5.140397   6.570500
    16  H    4.529849   5.414483   5.687184   5.606419   6.331883
                    6          7          8          9         10
     6  H    0.000000
     7  H    1.746304   0.000000
     8  O    1.294427   2.947788   0.000000
     9  H    1.953323   3.340302   0.975566   0.000000
    10  H    1.933199   3.464325   0.975655   1.570723   0.000000
    11  O    4.836855   4.531220   5.831119   6.373771   6.530512
    12  H    5.249709   4.832967   6.229424   6.648508   7.012506
    13  H    5.664446   5.245087   6.704509   7.323461   7.320095
    14  O    6.711134   6.233156   7.765503   8.449837   8.296396
    15  H    7.365658   7.044097   8.339207   9.031812   8.864759
    16  H    7.290024   6.603110   8.413961   9.071517   8.952444
                   11         12         13         14         15
    11  O    0.000000
    12  H    0.975930   0.000000
    13  H    1.138807   1.737678   0.000000
    14  O    2.436702   2.943943   1.299934   0.000000
    15  H    2.980258   3.438561   1.940885   0.975711   0.000000
    16  H    3.051759   3.362903   1.962281   0.975550   1.570999
                   16
    16  H    0.000000
 Stoichiometry    H10HgO5(2+)
 Framework group  C1[X(H10HgO5)]
 Deg. of freedom    42
 Full point group                 C1      NOp   1
 Largest Abelian subgroup         C1      NOp   1
 Largest concise Abelian subgroup C1      NOp   1
                         Standard orientation:                         
 ---------------------------------------------------------------------
 Center     Atomic      Atomic             Coordinates (Angstroms)
 Number     Number       Type             X           Y           Z
 ---------------------------------------------------------------------
      1         80           0        0.026939   -0.290804    0.014168
      2          8           0       -0.338940    2.190990   -0.006977
      3          1           0       -0.124939    2.791771    0.727807
      4          1           0       -0.340440    2.745096   -0.807040
      5          8           0       -1.859637   -0.512813   -0.751718
      6          1           0       -2.799204   -0.115390   -0.237131
      7          1           0       -2.020436   -1.396609   -1.132439
      8          8           0       -3.846454    0.411946    0.311253
      9          1           0       -4.447842   -0.173237    0.808869
     10          1           0       -4.399431    0.968840   -0.268390
     11          8           0        1.925193   -0.267950    0.788523
     12          1           0        2.121239   -1.052743    1.334512
     13          1           0        2.846676    0.039451    0.194170
     14          8           0        3.881123    0.490151   -0.451289
     15          1           0        4.459049    1.108035    0.034749
     16          1           0        4.459909   -0.149487   -0.906886
 ---------------------------------------------------------------------
 Rotational constants (GHZ):           3.2534332           0.6939196           0.6132452
 Leave Link  202 at Wed May 11 21:30:44 2022, MaxMem= 67108864000 cpu:               0.3 elap:               0.0
 (Enter /cm/shared/apps/gaussian/intel/EM64T/SSE4_2-enabled/binary//g16/l301.exe)
 Standard basis: SDDAll (6D, 10F)
 Ernie: Thresh=  0.10000D-02 Tol=  0.10000D-05 Strict=F.
 There are   114 symmetry adapted cartesian basis functions of A   symmetry.
 There are   114 symmetry adapted basis functions of A   symmetry.
   114 basis functions,   200 primitive gaussians,   114 cartesian basis functions
    29 alpha electrons       29 beta electrons
       nuclear repulsion energy       270.1475100076 Hartrees.
 IExCor=    0 DFT=F Ex=HF Corr=None ExCW=0 ScaHFX=  1.000000
 ScaDFX=  1.000000  1.000000  1.000000  1.000000 ScalE2=  1.000000  1.000000
 IRadAn=      5 IRanWt=     -1 IRanGd=            0 ICorTp=0 IEmpDi=  4
 NAtoms=   16 NActive=   16 NUniq=   16 SFac= 1.00D+00 NAtFMM=   60 NAOKFM=F Big=F
 Integral buffers will be    131072 words long.
 Raffenetti 1 integral format.
 Two-electron integral symmetry is turned on.
 Leave Link  301 at Wed May 11 21:30:44 2022, MaxMem= 67108864000 cpu:               2.7 elap:               0.1
 (Enter /cm/shared/apps/gaussian/intel/EM64T/SSE4_2-enabled/binary//g16/l302.exe)
 NPDir=0 NMtPBC=     1 NCelOv=     1 NCel=       1 NClECP=     1 NCelD=      1
         NCelK=      1 NCelE2=     1 NClLst=     1 CellRange=     0.0.
 One-electron integrals computed using PRISM.
 One-electron integral symmetry used in STVInt
   1 Symmetry operations used in ECPInt.
 ECPInt:  NShTT=    1770 NPrTT=    5742 LenC2=    1738 LenP2D=    4522.
 LDataN:  DoStor=T MaxTD1= 7 Len=  274
 NBasis=   114 RedAO= T EigKep=  3.83D-04  NBF=   114
 NBsUse=   114 1.00D-06 EigRej= -1.00D+00 NBFU=   114
 Leave Link  302 at Wed May 11 21:30:44 2022, MaxMem= 67108864000 cpu:               6.5 elap:               0.3
 (Enter /cm/shared/apps/gaussian/intel/EM64T/SSE4_2-enabled/binary//g16/l303.exe)
 DipDrv:  MaxL=1.
 Leave Link  303 at Wed May 11 21:30:44 2022, MaxMem= 67108864000 cpu:               0.8 elap:               0.1
 (Enter /cm/shared/apps/gaussian/intel/EM64T/SSE4_2-enabled/binary//g16/l401.exe)
 ExpMin= 2.00D-02 ExpMax= 4.71D+01 ExpMxC= 4.71D+01 IAcc=3 IRadAn=         5 AccDes= 0.00D+00
 Harris functional with IExCor=  205 and IRadAn=       5 diagonalized for initial guess.
 HarFok:  IExCor=  205 AccDes= 0.00D+00 IRadAn=         5 IDoV= 1 UseB2=F ITyADJ=14
 ICtDFT=  3500011 ScaDFX=  1.000000  1.000000  1.000000  1.000000
 Defaulting to unpruned grid for atomic number  80.
 FoFCou: FMM=F IPFlag=           0 FMFlag=      100000 FMFlg1=           0
         NFxFlg=           0 DoJE=T BraDBF=F KetDBF=T FulRan=T
         wScrn=  0.000000 ICntrl=       500 IOpCl=  0 I1Cent=   200000004 NGrid=           0
         NMat0=    1 NMatS0=      1 NMatT0=    0 NMatD0=    1 NMtDS0=    0 NMtDT0=    0
 Petite list used in FoFCou.
 Harris En= -239.821257527066    
 JPrj=0 DoOrth=F DoCkMO=F.
 Leave Link  401 at Wed May 11 21:30:45 2022, MaxMem= 67108864000 cpu:               8.2 elap:               0.3
 (Enter /cm/shared/apps/gaussian/intel/EM64T/SSE4_2-enabled/binary//g16/l502.exe)
 Integral symmetry usage will be decided dynamically.
 Closed shell SCF:
 Using DIIS extrapolation, IDIIS=  1040.
 NGot= 67108864000 LenX= 67108833355 LenY= 67108819918
 Requested convergence on RMS density matrix=1.00D-08 within 128 cycles.
 Requested convergence on MAX density matrix=1.00D-06.
 Requested convergence on             energy=1.00D-06.
 No special actions if energy rises.
 Fock matrices will be formed incrementally for  20 cycles.

 Cycle   1  Pass 0  IDiag  1:
 FoFJK:  IHMeth= 1 ICntrl=       0 DoSepK=F KAlg= 0 I1Cent=           0 FoldK=F
 IRaf= 960000000 NMat=       1 IRICut=       1 DoRegI=T DoRafI=F ISym2E= 0 IDoP0=0 IntGTp=1.
 FoFCou: FMM=F IPFlag=           0 FMFlag=      100000 FMFlg1=           0
         NFxFlg=           0 DoJE=F BraDBF=F KetDBF=F FulRan=T
         wScrn=  0.000000 ICntrl=         0 IOpCl=  0 I1Cent=           0 NGrid=           0
         NMat0=    1 NMatS0=      1 NMatT0=    0 NMatD0=    1 NMtDS0=    0 NMtDT0=    0
 Symmetry not used in FoFCou.
 E= -236.045095459350    
 DIIS: error= 4.32D-02 at cycle   1 NSaved=   1.
 NSaved= 1 IEnMin= 1 EnMin= -236.045095459350     IErMin= 1 ErrMin= 4.32D-02
 ErrMax= 4.32D-02  0.00D+00 EMaxC= 1.00D-01 BMatC= 5.63D-01 BMatP= 5.63D-01
 IDIUse=3 WtCom= 5.68D-01 WtEn= 4.32D-01
 Coeff-Com:  0.100D+01
 Coeff-En:   0.100D+01
 Coeff:      0.100D+01
 Gap=     0.670 Goal=   None    Shift=    0.000
 GapD=    0.670 DampG=2.000 DampE=0.250 DampFc=0.5000 IDamp=-1.
 Damping current iteration by 5.00D-01
 RMSDP=8.77D-03 MaxDP=2.30D-01              OVMax= 2.22D-01

 Cycle   2  Pass 0  IDiag  1:
 RMSU=  4.36D-03    CP:  1.01D+00
 E= -236.288440019632     Delta-E=       -0.243344560283 Rises=F Damp=T
 DIIS: error= 1.16D-02 at cycle   2 NSaved=   2.
 NSaved= 2 IEnMin= 2 EnMin= -236.288440019632     IErMin= 2 ErrMin= 1.16D-02
 ErrMax= 1.16D-02  0.00D+00 EMaxC= 1.00D-01 BMatC= 3.62D-02 BMatP= 5.63D-01
 IDIUse=3 WtCom= 8.84D-01 WtEn= 1.16D-01
 Coeff-Com: -0.239D+00 0.124D+01
 Coeff-En:   0.000D+00 0.100D+01
 Coeff:     -0.211D+00 0.121D+01
 Gap=     0.537 Goal=   None    Shift=    0.000
 RMSDP=2.84D-03 MaxDP=7.75D-02 DE=-2.43D-01 OVMax= 5.88D-02

 Cycle   3  Pass 0  IDiag  1:
 RMSU=  2.35D-03    CP:  1.00D+00  1.36D+00
 E= -236.496091003775     Delta-E=       -0.207650984142 Rises=F Damp=F
 DIIS: error= 4.54D-03 at cycle   3 NSaved=   3.
 NSaved= 3 IEnMin= 3 EnMin= -236.496091003775     IErMin= 3 ErrMin= 4.54D-03
 ErrMax= 4.54D-03  0.00D+00 EMaxC= 1.00D-01 BMatC= 3.00D-03 BMatP= 3.62D-02
 IDIUse=3 WtCom= 9.55D-01 WtEn= 4.54D-02
 Coeff-Com:  0.619D-01-0.206D+00 0.114D+01
 Coeff-En:   0.000D+00 0.000D+00 0.100D+01
 Coeff:      0.591D-01-0.197D+00 0.114D+01
 Gap=     0.542 Goal=   None    Shift=    0.000
 RMSDP=1.12D-03 MaxDP=3.40D-02 DE=-2.08D-01 OVMax= 2.14D-02

 Cycle   4  Pass 0  IDiag  1:
 RMSU=  5.73D-04    CP:  9.94D-01  1.30D+00  1.37D+00
 E= -236.499988413128     Delta-E=       -0.003897409353 Rises=F Damp=F
 DIIS: error= 1.67D-03 at cycle   4 NSaved=   4.
 NSaved= 4 IEnMin= 4 EnMin= -236.499988413128     IErMin= 4 ErrMin= 1.67D-03
 ErrMax= 1.67D-03  0.00D+00 EMaxC= 1.00D-01 BMatC= 4.96D-04 BMatP= 3.00D-03
 IDIUse=3 WtCom= 9.83D-01 WtEn= 1.67D-02
 Coeff-Com:  0.339D-01-0.143D+00 0.337D+00 0.771D+00
 Coeff-En:   0.000D+00 0.000D+00 0.000D+00 0.100D+01
 Coeff:      0.333D-01-0.140D+00 0.332D+00 0.775D+00
 Gap=     0.543 Goal=   None    Shift=    0.000
 RMSDP=3.48D-04 MaxDP=7.44D-03 DE=-3.90D-03 OVMax= 9.48D-03

 Cycle   5  Pass 0  IDiag  1:
 RMSU=  2.18D-04    CP:  9.93D-01  1.32D+00  1.48D+00  1.13D+00
 E= -236.500779743960     Delta-E=       -0.000791330832 Rises=F Damp=F
 DIIS: error= 4.89D-04 at cycle   5 NSaved=   5.
 NSaved= 5 IEnMin= 5 EnMin= -236.500779743960     IErMin= 5 ErrMin= 4.89D-04
 ErrMax= 4.89D-04  0.00D+00 EMaxC= 1.00D-01 BMatC= 4.72D-05 BMatP= 4.96D-04
 IDIUse=3 WtCom= 9.95D-01 WtEn= 4.89D-03
 Coeff-Com: -0.219D-01 0.757D-01-0.218D+00-0.252D+00 0.142D+01
 Coeff-En:   0.000D+00 0.000D+00 0.000D+00 0.000D+00 0.100D+01
 Coeff:     -0.218D-01 0.753D-01-0.217D+00-0.250D+00 0.141D+01
 Gap=     0.542 Goal=   None    Shift=    0.000
 RMSDP=2.52D-04 MaxDP=5.11D-03 DE=-7.91D-04 OVMax= 6.29D-03

 Cycle   6  Pass 0  IDiag  1:
 RMSU=  7.09D-05    CP:  9.91D-01  1.33D+00  1.54D+00  1.35D+00  1.55D+00
 E= -236.500961830000     Delta-E=       -0.000182086040 Rises=F Damp=F
 DIIS: error= 1.84D-04 at cycle   6 NSaved=   6.
 NSaved= 6 IEnMin= 6 EnMin= -236.500961830000     IErMin= 6 ErrMin= 1.84D-04
 ErrMax= 1.84D-04  0.00D+00 EMaxC= 1.00D-01 BMatC= 7.69D-06 BMatP= 4.72D-05
 IDIUse=3 WtCom= 9.98D-01 WtEn= 1.84D-03
 Coeff-Com: -0.697D-02 0.279D-01-0.940D-01-0.116D+00 0.349D+00 0.840D+00
 Coeff-En:   0.000D+00 0.000D+00 0.000D+00 0.000D+00 0.000D+00 0.100D+01
 Coeff:     -0.696D-02 0.279D-01-0.939D-01-0.116D+00 0.349D+00 0.840D+00
 Gap=     0.541 Goal=   None    Shift=    0.000
 RMSDP=6.67D-05 MaxDP=1.44D-03 DE=-1.82D-04 OVMax= 1.64D-03

 Cycle   7  Pass 0  IDiag  1:
 RMSU=  1.84D-05    CP:  9.91D-01  1.33D+00  1.56D+00  1.40D+00  1.68D+00
                    CP:  1.26D+00
 E= -236.500975939109     Delta-E=       -0.000014109109 Rises=F Damp=F
 DIIS: error= 4.36D-05 at cycle   7 NSaved=   7.
 NSaved= 7 IEnMin= 7 EnMin= -236.500975939109     IErMin= 7 ErrMin= 4.36D-05
 ErrMax= 4.36D-05  0.00D+00 EMaxC= 1.00D-01 BMatC= 7.41D-07 BMatP= 7.69D-06
 IDIUse=1 WtCom= 1.00D+00 WtEn= 0.00D+00
 Coeff-Com:  0.321D-02-0.863D-02 0.220D-01 0.326D-01-0.200D+00 0.489D-01
 Coeff-Com:  0.110D+01
 Coeff:      0.321D-02-0.863D-02 0.220D-01 0.326D-01-0.200D+00 0.489D-01
 Coeff:      0.110D+01
 Gap=     0.542 Goal=   None    Shift=    0.000
 RMSDP=2.51D-05 MaxDP=5.17D-04 DE=-1.41D-05 OVMax= 6.18D-04

 Cycle   8  Pass 0  IDiag  1:
 RMSU=  6.04D-06    CP:  9.91D-01  1.33D+00  1.57D+00  1.42D+00  1.73D+00
                    CP:  1.44D+00  1.26D+00
 E= -236.500977467678     Delta-E=       -0.000001528568 Rises=F Damp=F
 DIIS: error= 8.20D-06 at cycle   8 NSaved=   8.
 NSaved= 8 IEnMin= 8 EnMin= -236.500977467678     IErMin= 8 ErrMin= 8.20D-06
 ErrMax= 8.20D-06  0.00D+00 EMaxC= 1.00D-01 BMatC= 2.03D-08 BMatP= 7.41D-07
 IDIUse=1 WtCom= 1.00D+00 WtEn= 0.00D+00
 Coeff-Com: -0.453D-03 0.826D-03 0.918D-04-0.393D-02 0.295D-01-0.284D-01
 Coeff-Com: -0.235D+00 0.124D+01
 Coeff:     -0.453D-03 0.826D-03 0.918D-04-0.393D-02 0.295D-01-0.284D-01
 Coeff:     -0.235D+00 0.124D+01
 Gap=     0.542 Goal=   None    Shift=    0.000
 RMSDP=3.20D-06 MaxDP=8.50D-05 DE=-1.53D-06 OVMax= 7.80D-05

 Initial convergence to 1.0D-05 achieved.  Increase integral accuracy.
 Cycle   9  Pass 1  IDiag  1:
 E= -236.500977510126     Delta-E=       -0.000000042448 Rises=F Damp=F
 DIIS: error= 3.13D-06 at cycle   1 NSaved=   1.
 NSaved= 1 IEnMin= 1 EnMin= -236.500977510126     IErMin= 1 ErrMin= 3.13D-06
 ErrMax= 3.13D-06  0.00D+00 EMaxC= 1.00D-01 BMatC= 1.99D-09 BMatP= 1.99D-09
 IDIUse=1 WtCom= 1.00D+00 WtEn= 0.00D+00
 Coeff-Com:  0.100D+01
 Coeff:      0.100D+01
 Gap=     0.542 Goal=   None    Shift=    0.000
 RMSDP=3.20D-06 MaxDP=8.50D-05 DE=-4.24D-08 OVMax= 1.19D-05

 Cycle  10  Pass 1  IDiag  1:
 RMSU=  5.83D-07    CP:  1.00D+00
 E= -236.500977512707     Delta-E=       -0.000000002581 Rises=F Damp=F
 DIIS: error= 1.33D-06 at cycle   2 NSaved=   2.
 NSaved= 2 IEnMin= 2 EnMin= -236.500977512707     IErMin= 2 ErrMin= 1.33D-06
 ErrMax= 1.33D-06  0.00D+00 EMaxC= 1.00D-01 BMatC= 5.97D-10 BMatP= 1.99D-09
 IDIUse=1 WtCom= 1.00D+00 WtEn= 0.00D+00
 Coeff-Com:  0.294D+00 0.706D+00
 Coeff:      0.294D+00 0.706D+00
 Gap=     0.542 Goal=   None    Shift=    0.000
 RMSDP=2.20D-07 MaxDP=5.60D-06 DE=-2.58D-09 OVMax= 7.31D-06

 Cycle  11  Pass 1  IDiag  1:
 RMSU=  1.94D-07    CP:  1.00D+00  1.18D+00
 E= -236.500977513399     Delta-E=       -0.000000000692 Rises=F Damp=F
 DIIS: error= 4.85D-07 at cycle   3 NSaved=   3.
 NSaved= 3 IEnMin= 3 EnMin= -236.500977513399     IErMin= 3 ErrMin= 4.85D-07
 ErrMax= 4.85D-07  0.00D+00 EMaxC= 1.00D-01 BMatC= 7.53D-11 BMatP= 5.97D-10
 IDIUse=1 WtCom= 1.00D+00 WtEn= 0.00D+00
 Coeff-Com: -0.300D+00-0.247D+00 0.155D+01
 Coeff:     -0.300D+00-0.247D+00 0.155D+01
 Gap=     0.542 Goal=   None    Shift=    0.000
 RMSDP=2.83D-07 MaxDP=8.40D-06 DE=-6.92D-10 OVMax= 7.44D-06

 Cycle  12  Pass 1  IDiag  1:
 RMSU=  6.10D-08    CP:  1.00D+00  1.59D+00  1.68D+00
 E= -236.500977513658     Delta-E=       -0.000000000259 Rises=F Damp=F
 DIIS: error= 1.00D-07 at cycle   4 NSaved=   4.
 NSaved= 4 IEnMin= 4 EnMin= -236.500977513658     IErMin= 4 ErrMin= 1.00D-07
 ErrMax= 1.00D-07  0.00D+00 EMaxC= 1.00D-01 BMatC= 2.50D-12 BMatP= 7.53D-11
 IDIUse=1 WtCom= 1.00D+00 WtEn= 0.00D+00
 Coeff-Com: -0.518D-01-0.571D-01 0.211D+00 0.898D+00
 Coeff:     -0.518D-01-0.571D-01 0.211D+00 0.898D+00
 Gap=     0.542 Goal=   None    Shift=    0.000
 RMSDP=3.42D-08 MaxDP=9.37D-07 DE=-2.59D-10 OVMax= 8.58D-07

 Cycle  13  Pass 1  IDiag  1:
 RMSU=  1.40D-08    CP:  1.00D+00  1.63D+00  1.77D+00  1.23D+00
 E= -236.500977513661     Delta-E=       -0.000000000004 Rises=F Damp=F
 DIIS: error= 3.59D-08 at cycle   5 NSaved=   5.
 NSaved= 5 IEnMin= 5 EnMin= -236.500977513661     IErMin= 5 ErrMin= 3.59D-08
 ErrMax= 3.59D-08  0.00D+00 EMaxC= 1.00D-01 BMatC= 4.77D-13 BMatP= 2.50D-12
 IDIUse=1 WtCom= 1.00D+00 WtEn= 0.00D+00
 Coeff-Com:  0.586D-01 0.480D-01-0.305D+00 0.872D-01 0.111D+01
 Coeff:      0.586D-01 0.480D-01-0.305D+00 0.872D-01 0.111D+01
 Gap=     0.542 Goal=   None    Shift=    0.000
 RMSDP=1.85D-08 MaxDP=4.34D-07 DE=-3.52D-12 OVMax= 4.45D-07

 Cycle  14  Pass 1  IDiag  1:
 RMSU=  4.86D-09    CP:  1.00D+00  1.64D+00  1.82D+00  1.44D+00  1.25D+00
 E= -236.500977513665     Delta-E=       -0.000000000004 Rises=F Damp=F
 DIIS: error= 1.24D-08 at cycle   6 NSaved=   6.
 NSaved= 6 IEnMin= 6 EnMin= -236.500977513665     IErMin= 6 ErrMin= 1.24D-08
 ErrMax= 1.24D-08  0.00D+00 EMaxC= 1.00D-01 BMatC= 2.64D-14 BMatP= 4.77D-13
 IDIUse=1 WtCom= 1.00D+00 WtEn= 0.00D+00
 Coeff-Com:  0.752D-02 0.805D-02-0.349D-01-0.630D-01 0.988D-01 0.983D+00
 Coeff:      0.752D-02 0.805D-02-0.349D-01-0.630D-01 0.988D-01 0.983D+00
 Gap=     0.542 Goal=   None    Shift=    0.000
 RMSDP=3.51D-09 MaxDP=5.85D-08 DE=-3.87D-12 OVMax= 1.12D-07

 SCF Done:  E(RHF) =  -236.500977514     A.U. after   14 cycles
            NFock= 14  Conv=0.35D-08     -V/T= 2.9959
 KE= 1.184923655594D+02 PE=-1.045596601999D+03 EE= 4.204557489183D+02
 Leave Link  502 at Wed May 11 21:30:47 2022, MaxMem= 67108864000 cpu:              55.8 elap:               2.0
 (Enter /cm/shared/apps/gaussian/intel/EM64T/SSE4_2-enabled/binary//g16/l801.exe)
 Range of M.O.s used for correlation:     1   114
 NBasis=   114 NAE=    29 NBE=    29 NFC=     0 NFV=     0
 NROrb=    114 NOA=    29 NOB=    29 NVA=    85 NVB=    85

 **** Warning!!: The largest alpha MO coefficient is  0.28659073D+02

 Leave Link  801 at Wed May 11 21:30:47 2022, MaxMem= 67108864000 cpu:               0.5 elap:               0.0
 (Enter /cm/shared/apps/gaussian/intel/EM64T/SSE4_2-enabled/binary//g16/l906.exe)
 FulOut=F Deriv=T AODrv=T NAtomX=    16
   MMem=           0  MDisk=          29 MDiskD=          29
  W3Min=      376884 MinDsk=     1164521 NBas6D=         114
 NBas2D=        6660    NTT=        6555    LW2=     3308096
    MDV= 67108674219 MDiskM=     8175764 NBas2p=        6461
 Disk-based method using ON**2 memory for 29 occupieds at a time.
 Permanent disk used for amplitudes=     7525645 words.
 Estimated scratch disk usage=    81830490 words.
 IMap=   1   2   3   4   5   6   7   8   9  10  11  12  13  14  15  16  17  18  19  20
 IMap=  21  22  23  24  25  26  27  28  29
 Actual    scratch disk usage=    74798682 words.
 JobTyp=1 Pass  1:  I=   1 to  29 NPSUse= 28 ParTrn=T ParDer=T DoDerP=T.
 (rs|ai) integrals will be sorted in core.
 Spin components of T(2) and E(2):
     alpha-alpha T2 =       0.3094625269D-01 E2=     -0.9978264234D-01
     alpha-beta  T2 =       0.1803263119D+00 E2=     -0.5891343038D+00
     beta-beta   T2 =       0.3094625269D-01 E2=     -0.9978264234D-01
 The integrals were generated   1 times.
 ANorm=    0.1114548706D+01
 E2 =    -0.7886995885D+00 EUMP2 =    -0.23728967710218D+03
 Leave Link  906 at Wed May 11 21:30:57 2022, MaxMem= 67108864000 cpu:             286.7 elap:              10.3
 (Enter /cm/shared/apps/gaussian/intel/EM64T/SSE4_2-enabled/binary//g16/l1101.exe)
 Using compressed Sx but separate Hx and Fx, NAtomX=    16.
 Will process     17 centers per pass.
   1 Symmetry operations used in ECPInt.
 ECPInt:  NShTT=    1770 NPrTT=    5742 LenC2=    1738 LenP2D=    4522.
 LDataN:  DoStor=T MaxTD1= 8 Len=  415
 Leave Link 1101 at Wed May 11 21:30:58 2022, MaxMem= 67108864000 cpu:              12.3 elap:               0.5
 (Enter /cm/shared/apps/gaussian/intel/EM64T/SSE4_2-enabled/binary//g16/l1102.exe)
 Leave Link 1102 at Wed May 11 21:30:58 2022, MaxMem= 67108864000 cpu:               0.7 elap:               0.0
 (Enter /cm/shared/apps/gaussian/intel/EM64T/SSE4_2-enabled/binary//g16/l1110.exe)
 Forming Gx(P) for the SCF density, NAtomX=    16.
 Integral derivatives from FoFJK, PRISM(SPDF).
 Do as many integral derivatives as possible in FoFJK.
 G2DrvN: MDV=   67108862776.
 G2DrvN: will do    17 centers at a time, making    1 passes.
 Calling FoFCou, ICntrl=  3107 FMM=F I1Cent=   0 AccDes= 0.00D+00.
 FoFJK:  IHMeth= 1 ICntrl=    3107 DoSepK=F KAlg= 0 I1Cent=           0 FoldK=F
 IRaf=         0 NMat=       1 IRICut=       1 DoRegI=T DoRafI=F ISym2E= 0 IDoP0=0 IntGTp=1.
 FoFCou: FMM=F IPFlag=           0 FMFlag=      100000 FMFlg1=           0
         NFxFlg=           0 DoJE=F BraDBF=F KetDBF=F FulRan=T
         wScrn=  0.000000 ICntrl=      3107 IOpCl=  0 I1Cent=           0 NGrid=           0
         NMat0=    1 NMatS0=      1 NMatT0=    0 NMatD0=    1 NMtDS0=    0 NMtDT0=    0
 Symmetry not used in FoFCou.
 End of G2Drv F.D. properties file   721 does not exist.
 End of G2Drv F.D. properties file   722 does not exist.
 End of G2Drv F.D. properties file   788 does not exist.
 Leave Link 1110 at Wed May 11 21:30:58 2022, MaxMem= 67108864000 cpu:              10.2 elap:               0.4
 (Enter /cm/shared/apps/gaussian/intel/EM64T/SSE4_2-enabled/binary//g16/l1002.exe)
 Minotr:  Closed shell wavefunction.
          IDoAtm=1111111111111111
          Direct CPHF calculation.
          Differentiating once with respect to electric field.
                with respect to dipole field.
          Differentiating once with respect to nuclear coordinates.
          Requested convergence is 1.0D-08 RMS, and 1.0D-07 maximum.
          Secondary convergence is 1.0D-12 RMS, and 1.0D-12 maximum.
          NewPWx=T KeepS1=T KeepF1=T KeepIn=T MapXYZ=F SortEE=F KeepMc=T.
 Keep R1 ints in memory in canonical form, NReq=27438996.
 FoFCou: FMM=F IPFlag=           0 FMFlag=           0 FMFlg1=           0
         NFxFlg=           0 DoJE=F BraDBF=F KetDBF=F FulRan=T
         wScrn=  0.000000 ICntrl=       600 IOpCl=  0 I1Cent=           0 NGrid=           0
         NMat0=    1 NMatS0=   6555 NMatT0=    0 NMatD0=    1 NMtDS0=    0 NMtDT0=    0
 Symmetry not used in FoFCou.
 Two-electron integral symmetry not used.
          MDV=   67108864000 using IRadAn=       1.
          Solving linear equations simultaneously, MaxMat=       0.
          There are    51 degrees of freedom in the 1st order CPHF.  IDoFFX=6 NUNeed=    51.
     48 vectors produced by pass  0 Test12= 4.83D-15 1.96D-09 XBig12= 1.06D+01 1.22D+00.
 AX will form    48 AO Fock derivatives at one time.
     48 vectors produced by pass  1 Test12= 4.83D-15 1.96D-09 XBig12= 1.50D-01 8.60D-02.
     48 vectors produced by pass  2 Test12= 4.83D-15 1.96D-09 XBig12= 2.00D-03 6.41D-03.
     48 vectors produced by pass  3 Test12= 4.83D-15 1.96D-09 XBig12= 1.39D-05 6.55D-04.
     48 vectors produced by pass  4 Test12= 4.83D-15 1.96D-09 XBig12= 9.54D-08 5.50D-05.
     48 vectors produced by pass  5 Test12= 4.83D-15 1.96D-09 XBig12= 6.30D-10 3.43D-06.
     29 vectors produced by pass  6 Test12= 4.83D-15 1.96D-09 XBig12= 2.96D-12 2.28D-07.
      3 vectors produced by pass  7 Test12= 4.83D-15 1.96D-09 XBig12= 1.23D-14 1.24D-08.
 InvSVY:  IOpt=1 It=  1 EMax= 8.88D-16
 Solved reduced A of dimension   320 with    51 vectors.
 FullF1:  Do perturbations      1 to      51.
 Saving first derivative matrices.
 End of Minotr F.D. properties file   721 does not exist.
 End of Minotr F.D. properties file   722 does not exist.
 End of Minotr F.D. properties file   788 does not exist.
 Leave Link 1002 at Wed May 11 21:30:59 2022, MaxMem= 67108864000 cpu:              29.3 elap:               1.1
 (Enter /cm/shared/apps/gaussian/intel/EM64T/SSE4_2-enabled/binary//g16/l811.exe)
 MDV= 67108864000.
 Form MO integral derivatives with frozen-active canonical formalism.
 MOERI=1 MOERIx=1 NAtoms=    16 NAtomX=    16.
 Discarding MO integrals.
 MO basis two electron integral derivatives will not be stored on disk.
 IAlg= 3 DoFC=T DoPWx=T Debug=F.
 Reordered first order wavefunction length =     12152450
 In DefCFB: NBatch=  1 ICI= 29 ICA= 85 LFMax= 85
            Large arrays: LIAPS=   128140560 LIARS=    76715730 words.
 In StABat: MaxSiz= 39 MinSiz= 37 NAtomB=  3
 DoIAMN: NPSUse= 28.
 Leave Link  811 at Wed May 11 21:31:21 2022, MaxMem= 67108864000 cpu:             624.0 elap:              22.3
 (Enter /cm/shared/apps/gaussian/intel/EM64T/SSE4_2-enabled/binary//g16/l804.exe)
 Closed-shell transformation, MDV= 67108864000 ITran=4 ISComp=1.
 Semi-Direct transformation.
 ModeAB=           4 MOrb=            29 LenV=   67108405312
 LASXX=     17409106 LTotXX=    17409106 LenRXX=    35346331
 LTotAB=    17937225 MaxLAS=    21188154 LenRXY=           0
 NonZer=    52755437 LenScr=    79902720 LnRSAI=    21188154
 LnScr1=    32557056 LExtra=           0 Total=    168994261
 MaxDsk=          -1 SrtSym=           T ITran=            4
 DoSDTr:  NPSUse= 28
 JobTyp=0 Pass  1:  I=   1 to  29.
 (rs|ai) integrals will be sorted in core.
 Complete sort for first half transformation.
 First half transformation complete.
 Begin second half transformation for I=  10.
 Begin second half transformation for I=  20.
 Complete sort for second half transformation.
 Second half transformation complete.
 SymMOI:  orbitals are not symmetric.
 Spin components of T(2) and E(2):
     alpha-alpha T2 =       0.3094625269D-01 E2=     -0.9978264234D-01
     alpha-beta  T2 =       0.1803263119D+00 E2=     -0.5891343038D+00
     beta-beta   T2 =       0.3094625269D-01 E2=     -0.9978264234D-01
 ANorm=    0.1576209895D+01
 E2 =    -0.7886995885D+00 EUMP2 =    -0.23728967710218D+03
 Leave Link  804 at Wed May 11 21:31:24 2022, MaxMem= 67108864000 cpu:              76.2 elap:               2.8
 (Enter /cm/shared/apps/gaussian/intel/EM64T/SSE4_2-enabled/binary//g16/l1002.exe)
 Minotr:  Closed shell wavefunction.
          Computing MP2/KS-MP2 derivatives.
          Using Z-Vector for PSCF gradient.
          Skipping F1 and S1 gradient terms here.
          IDoAtm=1111111111111111
          Using MO integrals in the linear equations.
          Forming densities via direct SCF.
          Differentiating once with respect to electric field.
                with respect to dipole field.
          Differentiating once with respect to nuclear coordinates.
          Requested convergence is 1.0D-10 RMS, and 1.0D-09 maximum.
          NewPWx=F KeepS1=T KeepF1=T KeepIn=T MapXYZ=F SortEE=F KeepMc=T.
          MDV=   67108864000 using IRadAn=       5.
          Solving linear equations separately, MaxMat=       0.
          There are     1 degrees of freedom in the 1st order CPHF.  IDoFFX=0 NUNeed=     1.
 FoFJK:  IHMeth= 1 ICntrl=       0 DoSepK=F KAlg= 0 I1Cent=           0 FoldK=F
 IRaf=         0 NMat=       1 IRICut=       1 DoRegI=T DoRafI=F ISym2E= 0 IDoP0=0 IntGTp=1.
 FoFCou: FMM=F IPFlag=           0 FMFlag=      100000 FMFlg1=           0
         NFxFlg=           0 DoJE=F BraDBF=F KetDBF=F FulRan=T
         wScrn=  0.000000 ICntrl=         0 IOpCl=  0 I1Cent=           0 NGrid=           0
         NMat0=    1 NMatS0=      1 NMatT0=    0 NMatD0=    1 NMtDS0=    0 NMtDT0=    0
 Symmetry not used in FoFCou.
 LinEq1:  Iter=  0 NonCon=     1 RMS=6.75D-03 Max=9.20D-02 NDo=     1
 LinEq1:  Iter=  1 NonCon=     1 RMS=1.51D-03 Max=9.98D-03 NDo=     1
 LinEq1:  Iter=  2 NonCon=     1 RMS=4.79D-04 Max=6.39D-03 NDo=     1
 LinEq1:  Iter=  3 NonCon=     1 RMS=1.55D-04 Max=2.06D-03 NDo=     1
 LinEq1:  Iter=  4 NonCon=     1 RMS=4.96D-05 Max=5.99D-04 NDo=     1
 LinEq1:  Iter=  5 NonCon=     1 RMS=1.14D-05 Max=6.82D-05 NDo=     1
 LinEq1:  Iter=  6 NonCon=     1 RMS=4.79D-06 Max=3.88D-05 NDo=     1
 LinEq1:  Iter=  7 NonCon=     1 RMS=8.06D-07 Max=8.84D-06 NDo=     1
 LinEq1:  Iter=  8 NonCon=     1 RMS=1.63D-07 Max=1.72D-06 NDo=     1
 LinEq1:  Iter=  9 NonCon=     1 RMS=7.11D-08 Max=9.34D-07 NDo=     1
 LinEq1:  Iter= 10 NonCon=     1 RMS=1.60D-08 Max=1.77D-07 NDo=     1
 LinEq1:  Iter= 11 NonCon=     1 RMS=3.38D-09 Max=3.55D-08 NDo=     1
 LinEq1:  Iter= 12 NonCon=     1 RMS=1.66D-09 Max=2.05D-08 NDo=     1
 LinEq1:  Iter= 13 NonCon=     1 RMS=2.87D-10 Max=3.32D-09 NDo=     1
 LinEq1:  Iter= 14 NonCon=     0 RMS=4.13D-11 Max=4.76D-10 NDo=     1
 Linear equations converged to 1.000D-10 1.000D-09 after    14 iterations.
 End of Minotr F.D. properties file   721 does not exist.
 End of Minotr F.D. properties file   722 does not exist.
 End of Minotr F.D. properties file   788 does not exist.
 Leave Link 1002 at Wed May 11 21:31:26 2022, MaxMem= 67108864000 cpu:              47.5 elap:               1.7
 (Enter /cm/shared/apps/gaussian/intel/EM64T/SSE4_2-enabled/binary//g16/l1102.exe)
 Use density number 2.
 Symmetrizing basis deriv contribution to polar:
 IMax=3 JMax=2 DiffMx= 0.00D+00
 Leave Link 1102 at Wed May 11 21:31:26 2022, MaxMem= 67108864000 cpu:               1.0 elap:               0.1
 (Enter /cm/shared/apps/gaussian/intel/EM64T/SSE4_2-enabled/binary//g16/l1110.exe)
 Forming Gx(P) for generalized density number  2 NAtomX=    16.
 Integral derivatives from FoFJK, PRISM(SPDF).
 Do as many integral derivatives as possible in FoFJK.
 G2DrvN: MDV=   67108862776.
 G2DrvN: will do    17 centers at a time, making    1 passes.
 Calling FoFCou, ICntrl=  3107 FMM=F I1Cent=   0 AccDes= 0.00D+00.
 FoFJK:  IHMeth= 1 ICntrl=    3107 DoSepK=F KAlg= 0 I1Cent=           0 FoldK=F
 IRaf=         0 NMat=       1 IRICut=       1 DoRegI=T DoRafI=F ISym2E= 0 IDoP0=0 IntGTp=1.
 FoFCou: FMM=F IPFlag=           0 FMFlag=      100000 FMFlg1=           0
         NFxFlg=           0 DoJE=F BraDBF=F KetDBF=F FulRan=T
         wScrn=  0.000000 ICntrl=      3107 IOpCl=  0 I1Cent=           0 NGrid=           0
         NMat0=    1 NMatS0=      1 NMatT0=    0 NMatD0=    1 NMtDS0=    0 NMtDT0=    0
 Symmetry not used in FoFCou.
 End of G2Drv F.D. properties file   721 does not exist.
 End of G2Drv F.D. properties file   722 does not exist.
 End of G2Drv F.D. properties file   788 does not exist.
 Leave Link 1110 at Wed May 11 21:31:26 2022, MaxMem= 67108864000 cpu:              10.2 elap:               0.4
 (Enter /cm/shared/apps/gaussian/intel/EM64T/SSE4_2-enabled/binary//g16/l1112.exe)
 MP22nd: MDV=   67108864000
 This link is doing NAtomX=    16 total of    51 degrees of freedom.
 Using ON3 I/O method in MakUI.
 Using Ix for Sx.
 Using OV2 memory method for fx*t*t/D, MaxI=    29 DoOO2=F NP=  28.
 R2 and R3 integrals will be kept in memory, NReq=    43794580.
 FoFCou: FMM=F IPFlag=           0 FMFlag=           0 FMFlg1=           0
         NFxFlg=           0 DoJE=F BraDBF=F KetDBF=F FulRan=T
         wScrn=  0.000000 ICntrl=       600 IOpCl=  0 I1Cent=           0 NGrid=           0
         NMat0=    1 NMatS0=      1 NMatT0=    0 NMatD0=    1 NMtDS0=    0 NMtDT0=    0
 Symmetry not used in FoFCou.
 DD1Dir will call FoFMem   1 times, MxPair=       870
 NAB=   435 NAA=     0 NBB=     0.
 Symmetry is being used.
 FoFJK:  IHMeth= 1 ICntrl=       0 DoSepK=F KAlg= 0 I1Cent=           0 FoldK=F
 IRaf=         0 NMat=      51 IRICut=     127 DoRegI=T DoRafI=T ISym2E= 2 IDoP0=0 IntGTp=1.
 Discarding MO integrals.
 Leave Link 1112 at Wed May 11 21:31:42 2022, MaxMem= 67108864000 cpu:             438.8 elap:              15.7
 (Enter /cm/shared/apps/gaussian/intel/EM64T/SSE4_2-enabled/binary//g16/l601.exe)
 Copying SCF densities to generalized density rwf, IOpCl= 0 IROHF=0.

 **********************************************************************

            Population analysis using the SCF density.

 **********************************************************************

 Orbital symmetries:
       Occupied  (A) (A) (A) (A) (A) (A) (A) (A) (A) (A) (A) (A)
                 (A) (A) (A) (A) (A) (A) (A) (A) (A) (A) (A) (A)
                 (A) (A) (A) (A) (A)
       Virtual   (A) (A) (A) (A) (A) (A) (A) (A) (A) (A) (A) (A)
                 (A) (A) (A) (A) (A) (A) (A) (A) (A) (A) (A) (A)
                 (A) (A) (A) (A) (A) (A) (A) (A) (A) (A) (A) (A)
                 (A) (A) (A) (A) (A) (A) (A) (A) (A) (A) (A) (A)
                 (A) (A) (A) (A) (A) (A) (A) (A) (A) (A) (A) (A)
                 (A) (A) (A) (A) (A) (A) (A) (A) (A) (A) (A) (A)
                 (A) (A) (A) (A) (A) (A) (A) (A) (A) (A) (A) (A)
                 (A)
 The electronic state is 1-A.
 Alpha  occ. eigenvalues --   -5.43238  -3.42880  -3.42545  -3.42275  -1.71314
 Alpha  occ. eigenvalues --   -1.70847  -1.67390  -1.66505  -1.65906  -1.08786
 Alpha  occ. eigenvalues --   -1.08002  -1.06914  -1.04686  -1.04254  -1.01422
 Alpha  occ. eigenvalues --   -1.00379  -1.00250  -0.99978  -0.98854  -0.95406
 Alpha  occ. eigenvalues --   -0.92686  -0.89215  -0.88018  -0.85702  -0.84153
 Alpha  occ. eigenvalues --   -0.83164  -0.82886  -0.81721  -0.80263
 Alpha virt. eigenvalues --   -0.26097  -0.19941  -0.17555  -0.16533  -0.15482
 Alpha virt. eigenvalues --   -0.11266  -0.10179  -0.08998  -0.07874  -0.06952
 Alpha virt. eigenvalues --   -0.06054  -0.05381  -0.04569  -0.02149  -0.01802
 Alpha virt. eigenvalues --   -0.01048  -0.00507  -0.00310  -0.00129   0.00669
 Alpha virt. eigenvalues --    0.02077   0.02599   0.03075   0.04811   0.06498
 Alpha virt. eigenvalues --    0.08308   0.08447   0.10767   0.11478   0.12348
 Alpha virt. eigenvalues --    0.13779   0.14527   0.16102   0.17856   0.18477
 Alpha virt. eigenvalues --    0.20189   0.21930   0.23943   0.26028   0.35249
 Alpha virt. eigenvalues --    0.61768   0.65583   0.67143   0.68639   0.93301
 Alpha virt. eigenvalues --    0.97497   1.03403   1.05910   1.06272   1.07762
 Alpha virt. eigenvalues --    1.07995   1.08571   1.10166   1.11870   1.12782
 Alpha virt. eigenvalues --    1.13349   1.15241   1.15838   1.16221   1.16975
 Alpha virt. eigenvalues --    1.18396   1.19404   1.21642   1.24817   1.26129
 Alpha virt. eigenvalues --    1.27024   1.29821   1.31636   1.32658   1.34506
 Alpha virt. eigenvalues --    1.34750   1.38272   1.48947   1.53130   2.20490
 Alpha virt. eigenvalues --    2.27910   2.40395   2.80465   3.00561   4.23950
 Alpha virt. eigenvalues --   15.47975  41.58309  41.64111  41.72468  81.46165
          Condensed to atoms (all electrons):
               1          2          3          4          5          6
     1  Hg  18.382241   0.024683  -0.003399  -0.000786   0.111205  -0.002076
     2  O    0.024683   6.419491   0.261866   0.260266  -0.006598   0.000519
     3  H   -0.003399   0.261866   0.244280  -0.014882   0.000409  -0.000004
     4  H   -0.000786   0.260266  -0.014882   0.245052  -0.000098   0.000004
     5  O    0.111205  -0.006598   0.000409  -0.000098   6.609408   0.147299
     6  H   -0.002076   0.000519  -0.000004   0.000004   0.147299   0.138896
     7  H   -0.007319   0.000423  -0.000000  -0.000003   0.242737  -0.006462
     8  O    0.000155  -0.001803   0.000038  -0.000006  -0.059081   0.090046
     9  H    0.000285   0.000012  -0.000000   0.000000   0.001557  -0.002309
    10  H    0.000736  -0.000069  -0.000000   0.000001   0.002004  -0.002543
    11  O    0.115859  -0.005340   0.000394   0.000037   0.001247   0.000051
    12  H   -0.006556   0.000203  -0.000002  -0.000000  -0.000208   0.000000
    13  H   -0.001810  -0.000068  -0.000001   0.000001   0.000042   0.000000
    14  O    0.000545  -0.000590  -0.000017   0.000017  -0.000013  -0.000000
    15  H    0.000620   0.000001   0.000000   0.000000   0.000001  -0.000000
    16  H    0.000346  -0.000007  -0.000000  -0.000000   0.000000  -0.000000
               7          8          9         10         11         12
     1  Hg  -0.007319   0.000155   0.000285   0.000736   0.115859  -0.006556
     2  O    0.000423  -0.001803   0.000012  -0.000069  -0.005340   0.000203
     3  H   -0.000000   0.000038  -0.000000  -0.000000   0.000394  -0.000002
     4  H   -0.000003  -0.000006   0.000000   0.000001   0.000037  -0.000000
     5  O    0.242737  -0.059081   0.001557   0.002004   0.001247  -0.000208
     6  H   -0.006462   0.090046  -0.002309  -0.002543   0.000051   0.000000
     7  H    0.241913   0.001384  -0.000037  -0.000033  -0.000186  -0.000000
     8  O    0.001384   6.350154   0.255956   0.256938  -0.000013   0.000003
     9  H   -0.000037   0.255956   0.234704  -0.012268   0.000000   0.000000
    10  H   -0.000033   0.256938  -0.012268   0.227403   0.000000  -0.000000
    11  O   -0.000186  -0.000013   0.000000   0.000000   6.591530   0.243137
    12  H   -0.000000   0.000003   0.000000  -0.000000   0.243137   0.239883
    13  H    0.000000   0.000000  -0.000000  -0.000000   0.150033  -0.006887
    14  O    0.000003   0.000000  -0.000000  -0.000000  -0.058241   0.001228
    15  H   -0.000000  -0.000000   0.000000  -0.000000   0.001761  -0.000041
    16  H    0.000000  -0.000000  -0.000000   0.000000   0.001557  -0.000028
              13         14         15         16
     1  Hg  -0.001810   0.000545   0.000620   0.000346
     2  O   -0.000068  -0.000590   0.000001  -0.000007
     3  H   -0.000001  -0.000017   0.000000  -0.000000
     4  H    0.000001   0.000017   0.000000  -0.000000
     5  O    0.000042  -0.000013   0.000001   0.000000
     6  H    0.000000  -0.000000  -0.000000  -0.000000
     7  H    0.000000   0.000003  -0.000000   0.000000
     8  O    0.000000   0.000000  -0.000000  -0.000000
     9  H   -0.000000  -0.000000   0.000000  -0.000000
    10  H   -0.000000  -0.000000  -0.000000   0.000000
    11  O    0.150033  -0.058241   0.001761   0.001557
    12  H   -0.006887   0.001228  -0.000041  -0.000028
    13  H    0.140929   0.088172  -0.002333  -0.002265
    14  O    0.088172   6.355805   0.256675   0.255799
    15  H   -0.002333   0.256675   0.226425  -0.012288
    16  H   -0.002265   0.255799  -0.012288   0.232706
 Mulliken charges:
               1
     1  Hg   1.385270
     2  O   -0.952989
     3  H    0.511317
     4  H    0.510396
     5  O   -1.049910
     6  H    0.636578
     7  H    0.527579
     8  O   -0.893771
     9  H    0.522100
    10  H    0.527832
    11  O   -1.041829
    12  H    0.529266
    13  H    0.634186
    14  O   -0.899383
    15  H    0.529179
    16  H    0.524179
 Sum of Mulliken charges =   2.00000
 Mulliken charges with hydrogens summed into heavy atoms:
               1
     1  Hg   1.385270
     2  O    0.068725
     5  O    0.114247
     8  O    0.156161
    11  O    0.121623
    14  O    0.153974
         Mulliken charges condensed to fragments:
      1      1.385270
      2      0.614730
 APT charges:
               1
     1  Hg   1.474670
     2  O   -0.710959
     3  H    0.353748
     4  H    0.352320
     5  O   -0.959410
     6  H    0.905272
     7  H    0.335139
     8  O   -0.824722
     9  H    0.399673
    10  H    0.408073
    11  O   -0.957512
    12  H    0.339575
    13  H    0.902804
    14  O   -0.830859
    15  H    0.410660
    16  H    0.401527
 Sum of APT charges =   2.00000
 APT charges with hydrogens summed into heavy atoms:
               1
     1  Hg   1.474670
     2  O   -0.004890
     5  O    0.281002
     8  O   -0.016976
    11  O    0.284867
    14  O   -0.018673
         APT charges condensed to fragments:
      1      1.474670
      2      0.525330
 Electronic spatial extent (au):  <R**2>=           1430.5793
 Charge=              2.0000 electrons
 Dipole moment (field-independent basis, Debye):
    X=              0.6210    Y=              0.1500    Z=             -0.0912  Tot=              0.6453
 Quadrupole moment (field-independent basis, Debye-Ang):
   XX=             52.6844   YY=            -26.2710   ZZ=            -44.6455
   XY=              1.5267   XZ=              0.6054   YZ=             -0.8920
 Traceless Quadrupole moment (field-independent basis, Debye-Ang):
   XX=             58.7617   YY=            -20.1936   ZZ=            -38.5681
   XY=              1.5267   XZ=              0.6054   YZ=             -0.8920
 Octapole moment (field-independent basis, Debye-Ang**2):
  XXX=             10.9826  YYY=             22.1160  ZZZ=              3.1705  XYY=             -0.2026
  XXY=              2.8811  XXZ=             -5.7821  XZZ=              1.6148  YZZ=            -11.0261
  YYZ=             -1.9576  XYZ=              5.2318
 Hexadecapole moment (field-independent basis, Debye-Ang**3):
 XXXX=            793.2468 YYYY=            -96.0208 ZZZZ=            -95.4803 XXXY=             31.2402
 XXXZ=            -92.7994 YYYX=              4.2451 YYYZ=              0.6304 ZZZX=             -1.7192
 ZZZY=             -3.4070 XXYY=           -206.0778 XXZZ=           -214.5081 YYZZ=            -33.9427
 XXYZ=             -7.6327 YYXZ=             28.6308 ZZXY=             -6.8655
 N-N= 2.701475100076D+02 E-N=-1.045596602952D+03  KE= 1.184923655594D+02
  Exact polarizability:  66.510   0.088  45.049   0.935   0.007  39.803
 Approx polarizability:  35.335   0.105  30.547  -0.428  -0.143  29.128
 No NMR shielding tensors so no spin-rotation constants.
 Leave Link  601 at Wed May 11 21:31:42 2022, MaxMem= 67108864000 cpu:               4.3 elap:               0.2
 (Enter /cm/shared/apps/gaussian/intel/EM64T/SSE4_2-enabled/binary//g16/l701.exe)
 ... and contract with generalized density number  2.
 Compute integral second derivatives.
   1 Symmetry operations used in ECPInt.
 ECPInt:  NShTT=    1770 NPrTT=    5742 LenC2=    1738 LenP2D=    4522.
 LDataN:  DoStor=T MaxTD1= 9 Len=  602
 Leave Link  701 at Wed May 11 21:31:44 2022, MaxMem= 67108864000 cpu:              37.3 elap:               1.4
 (Enter /cm/shared/apps/gaussian/intel/EM64T/SSE4_2-enabled/binary//g16/l702.exe)
 L702 exits ... SP integral derivatives will be done elsewhere.
 Leave Link  702 at Wed May 11 21:31:44 2022, MaxMem= 67108864000 cpu:               0.6 elap:               0.0
 (Enter /cm/shared/apps/gaussian/intel/EM64T/SSE4_2-enabled/binary//g16/l703.exe)
 Integral derivatives from FoFJK, PRISM(SPDF).
 Compute integral second derivatives, UseDBF=F ICtDFT=           0.
 Calling FoFJK, ICntrl=  10100127 FMM=F ISym2X=0 I1Cent= 0 IOpClX= 0 NMat=1 NMatS=1 NMatT=0.
 FoFJK:  IHMeth= 1 ICntrl=10100127 DoSepK=F KAlg= 0 I1Cent=           0 FoldK=F
 IRaf=         0 NMat=       1 IRICut=       1 DoRegI=T DoRafI=F ISym2E= 0 IDoP0=0 IntGTp=1.
 FoFCou: FMM=F IPFlag=           0 FMFlag=      100000 FMFlg1=         800
         NFxFlg=           0 DoJE=F BraDBF=F KetDBF=F FulRan=T
         wScrn=  0.000000 ICntrl=  10100127 IOpCl=  0 I1Cent=           0 NGrid=           0
         NMat0=    1 NMatS0=      1 NMatT0=    0 NMatD0=    1 NMtDS0=    0 NMtDT0=    0
 Symmetry not used in FoFCou.
 Leave Link  703 at Wed May 11 21:31:44 2022, MaxMem= 67108864000 cpu:              16.7 elap:               0.6
 (Enter /cm/shared/apps/gaussian/intel/EM64T/SSE4_2-enabled/binary//g16/l716.exe)
 Dipole        = 2.15139872D-01 1.94926408D-01-4.09954603D-02
 Polarizability= 6.65097132D+01 8.81031660D-02 4.50485212D+01
                 9.35054998D-01 7.00132124D-03 3.98033811D+01
 Full mass-weighted force constant matrix:
 Low frequencies --- -420.6476 -300.8379 -293.3378 -105.8232  -94.8504  -57.0398
 Low frequencies ---  -41.3703  -37.7638    0.0002
 ******    5 imaginary frequencies (negative Signs) ****** 
 Diagonal vibrational polarizability:
      669.6651031     188.5413202     915.9744196
 Harmonic frequencies (cm**-1), IR intensities (KM/Mole), Raman scattering
 activities (A**4/AMU), depolarization ratios for plane and unpolarized
 incident light, reduced masses (AMU), force constants (mDyne/A),
 and normal coordinates:
                      1                      2                      3
                      A                      A                      A
 Frequencies --   -420.1689              -298.6777              -291.1606
 Red. masses --      1.0142                 1.0407                 1.0406
 Frc consts  --      0.1055                 0.0547                 0.0520
 IR Inten    --      6.9155                56.2134                53.3193
  Atom  AN      X      Y      Z        X      Y      Z        X      Y      Z
     1  80     0.00  -0.00   0.00     0.00   0.00  -0.00     0.00  -0.00  -0.00
     2   8    -0.01   0.01  -0.01     0.01  -0.01   0.02     0.00   0.00   0.02
     3   1    -0.68   0.01   0.18    -0.07  -0.00   0.04    -0.02  -0.00   0.03
     4   1     0.71   0.01  -0.02     0.02   0.00   0.02    -0.03   0.01   0.03
     5   8     0.00  -0.00   0.00    -0.00  -0.01   0.01    -0.00   0.01  -0.00
     6   1     0.01   0.00  -0.01     0.00  -0.03   0.03     0.00  -0.00   0.00
     7   1    -0.00  -0.01   0.01    -0.00  -0.01   0.02    -0.00   0.02  -0.02
     8   8     0.00   0.00   0.01    -0.00   0.03  -0.02     0.00   0.00   0.00
     9   1    -0.02  -0.02  -0.04     0.25   0.30   0.58     0.03   0.03   0.07
    10   1     0.02   0.04   0.02    -0.26  -0.55  -0.34    -0.04  -0.06  -0.03
    11   8     0.00  -0.00  -0.00     0.00  -0.01  -0.00    -0.01   0.01   0.01
    12   1     0.00  -0.01  -0.01     0.00  -0.03  -0.02    -0.00   0.02   0.02
    13   1    -0.00   0.00   0.00     0.00  -0.01  -0.00     0.00   0.04   0.04
    14   8    -0.00   0.00  -0.01     0.00   0.01   0.01    -0.00  -0.03  -0.02
    15   1    -0.01   0.01  -0.01     0.02  -0.05   0.06    -0.26   0.50  -0.40
    16   1     0.00  -0.00   0.00    -0.02   0.04  -0.06     0.26  -0.25   0.61
                      4                      5                      6
                      A                      A                      A
 Frequencies --    -94.8042               -89.7527                25.2154
 Red. masses --      2.7641                 2.8441                 5.1771
 Frc consts  --      0.0146                 0.0135                 0.0019
 IR Inten    --     16.9019                 2.7624                24.8798
  Atom  AN      X      Y      Z        X      Y      Z        X      Y      Z
     1  80    -0.00  -0.01   0.00     0.00  -0.00  -0.01    -0.01  -0.00  -0.05
     2   8     0.01  -0.02  -0.02    -0.03  -0.00   0.18    -0.12  -0.01  -0.06
     3   1     0.04  -0.01  -0.04     0.02  -0.18   0.31    -0.12  -0.02  -0.05
     4   1    -0.03  -0.03  -0.03    -0.02   0.18   0.31    -0.13   0.01  -0.05
     5   8    -0.05  -0.08   0.13    -0.01  -0.15   0.08    -0.05  -0.10   0.08
     6   1    -0.03   0.01   0.07    -0.01  -0.06   0.02     0.04  -0.04   0.11
     7   1    -0.07  -0.17   0.33    -0.01  -0.25   0.30    -0.10  -0.16   0.23
     8   8    -0.03   0.15  -0.06    -0.00   0.08  -0.12     0.10   0.06   0.26
     9   1    -0.20   0.24  -0.15    -0.18   0.20  -0.19     0.11   0.08   0.29
    10   1     0.15   0.23  -0.15     0.18   0.14  -0.24     0.09   0.11   0.32
    11   8     0.05  -0.13  -0.11    -0.01   0.16   0.02    -0.04   0.12   0.02
    12   1     0.08  -0.29  -0.34    -0.01   0.29   0.20    -0.10   0.21   0.17
    13   1     0.03  -0.00  -0.07     0.00   0.07  -0.01     0.07   0.04   0.07
    14   8     0.03   0.17   0.05     0.01  -0.06  -0.08     0.16  -0.06   0.27
    15   1    -0.18   0.29   0.15     0.15  -0.13  -0.15     0.14  -0.12   0.37
    16   1     0.24   0.29   0.15    -0.13  -0.15  -0.13     0.17  -0.08   0.31
                      7                      8                      9
                      A                      A                      A
 Frequencies --     43.5569                63.3827               110.9146
 Red. masses --      5.3702                 5.0955                 5.4729
 Frc consts  --      0.0060                 0.0121                 0.0397
 IR Inten    --      4.7481                 5.0083                 0.5248
  Atom  AN      X      Y      Z        X      Y      Z        X      Y      Z
     1  80     0.00  -0.06  -0.00    -0.03  -0.00  -0.02    -0.01  -0.06   0.01
     2   8     0.00  -0.03  -0.01     0.45   0.04  -0.01     0.02   0.06   0.00
     3   1     0.01  -0.03  -0.02     0.51  -0.08   0.07     0.00   0.08  -0.01
     4   1     0.01  -0.04  -0.02     0.54   0.14   0.05     0.08   0.03  -0.02
     5   8     0.04   0.08  -0.13    -0.04  -0.09   0.06    -0.04   0.25   0.04
     6   1     0.11   0.11  -0.07    -0.06  -0.09   0.07    -0.10   0.21   0.08
     7   1    -0.02   0.14  -0.24    -0.02  -0.12   0.12    -0.10   0.38  -0.21
     8   8     0.20   0.24   0.06    -0.04  -0.11   0.06    -0.17   0.03  -0.05
     9   1     0.21   0.31   0.15    -0.04  -0.12   0.05    -0.10  -0.03  -0.04
    10   1     0.19   0.25   0.09    -0.04  -0.09   0.07    -0.22  -0.04  -0.07
    11   8    -0.06   0.12   0.13    -0.05   0.09   0.06     0.05   0.24  -0.17
    12   1    -0.01   0.23   0.26    -0.04   0.12   0.11     0.13   0.42   0.05
    13   1    -0.11   0.12   0.09    -0.07   0.08   0.08     0.12   0.20  -0.20
    14   8    -0.19   0.22  -0.04    -0.04   0.09   0.06     0.22   0.06   0.02
    15   1    -0.17   0.22  -0.07    -0.04   0.09   0.06     0.21   0.01   0.11
    16   1    -0.21   0.26  -0.12    -0.04   0.09   0.06     0.22   0.04   0.05
                     10                     11                     12
                      A                      A                      A
 Frequencies --    125.1095               202.7512               315.5717
 Red. masses --      6.3497                 6.1736                 1.3713
 Frc consts  --      0.0586                 0.1495                 0.0805
 IR Inten    --     17.8198                 1.4011               177.3397
  Atom  AN      X      Y      Z        X      Y      Z        X      Y      Z
     1  80    -0.06   0.01   0.04     0.00  -0.03  -0.00    -0.01  -0.00  -0.01
     2   8     0.07  -0.01   0.04    -0.06   0.54  -0.00    -0.01  -0.00  -0.00
     3   1     0.09  -0.03   0.05     0.06   0.52  -0.02     0.02   0.06  -0.06
     4   1     0.06   0.00   0.05    -0.03   0.54  -0.00     0.03  -0.08  -0.06
     5   8     0.08  -0.16  -0.26     0.04  -0.04   0.05    -0.00   0.02   0.06
     6   1     0.14  -0.21  -0.27    -0.05  -0.03   0.10    -0.09  -0.13   0.23
     7   1     0.17  -0.17  -0.28     0.09  -0.05   0.04     0.07   0.18  -0.30
     8   8     0.27  -0.02  -0.02     0.10  -0.05  -0.02     0.05  -0.04  -0.00
     9   1     0.28   0.05   0.07     0.06   0.03   0.03    -0.18   0.21  -0.00
    10   1     0.23   0.03   0.05     0.16  -0.05  -0.08     0.32  -0.00  -0.23
    11   8     0.06   0.04  -0.24    -0.03  -0.05  -0.04     0.01  -0.01   0.08
    12   1     0.13   0.01  -0.31    -0.05  -0.06  -0.03     0.08  -0.24  -0.28
    13   1     0.10   0.09  -0.25     0.01  -0.04  -0.06    -0.08   0.19   0.21
    14   8     0.20   0.01  -0.03    -0.06  -0.03   0.02     0.07   0.04  -0.01
    15   1     0.12   0.01   0.05    -0.12  -0.01   0.06     0.36  -0.03  -0.26
    16   1     0.26  -0.00   0.06    -0.02   0.02  -0.00    -0.20  -0.23   0.02
                     13                     14                     15
                      A                      A                      A
 Frequencies --    327.3423               357.1893               371.1759
 Red. masses --      1.1983                 1.6941                 3.1569
 Frc consts  --      0.0756                 0.1273                 0.2563
 IR Inten    --     46.5195               496.3872                 4.6483
  Atom  AN      X      Y      Z        X      Y      Z        X      Y      Z
     1  80     0.00  -0.01   0.00    -0.02   0.00  -0.01    -0.00   0.00   0.00
     2   8    -0.00   0.03  -0.01    -0.01  -0.01   0.06     0.00  -0.07  -0.01
     3   1     0.01  -0.03   0.03     0.03   0.31  -0.20     0.04  -0.14   0.04
     4   1    -0.02   0.09   0.03     0.09  -0.37  -0.19     0.04  -0.00   0.04
     5   8    -0.01  -0.02  -0.05     0.01   0.05   0.06     0.08   0.11   0.15
     6   1     0.03   0.19  -0.20    -0.11   0.24   0.05    -0.03   0.28   0.13
     7   1    -0.09  -0.18   0.35    -0.02  -0.10   0.39     0.03   0.01   0.39
     8   8    -0.04   0.04  -0.00     0.09  -0.03  -0.06     0.16  -0.06  -0.08
     9   1     0.24  -0.23   0.01     0.26  -0.19  -0.04     0.32  -0.24  -0.10
    10   1    -0.33   0.02   0.26    -0.06  -0.03   0.08     0.03  -0.09   0.01
    11   8     0.01   0.00   0.05     0.02  -0.04   0.07    -0.08   0.07  -0.15
    12   1     0.09  -0.23  -0.30    -0.02   0.15   0.35    -0.02  -0.11  -0.42
    13   1    -0.01   0.21   0.13    -0.10  -0.21   0.11     0.01   0.23  -0.15
    14   8     0.04   0.04  -0.00     0.09   0.03  -0.06    -0.14  -0.04   0.09
    15   1     0.30  -0.02  -0.24    -0.02   0.05   0.04    -0.03  -0.08   0.01
    16   1    -0.22  -0.21   0.02     0.23   0.16  -0.07    -0.27  -0.20   0.14
                     16                     17                     18
                      A                      A                      A
 Frequencies --    379.5964               479.9227               483.8024
 Red. masses --      1.3595                 1.3956                 1.4600
 Frc consts  --      0.1154                 0.1894                 0.2013
 IR Inten    --    165.4856               108.2474                 5.8174
  Atom  AN      X      Y      Z        X      Y      Z        X      Y      Z
     1  80     0.01  -0.00  -0.00     0.00   0.00   0.00     0.00  -0.00   0.00
     2   8     0.03   0.01   0.09    -0.01  -0.00  -0.02    -0.00   0.00   0.00
     3   1    -0.15   0.58  -0.32     0.08  -0.05  -0.00     0.03   0.01  -0.01
     4   1    -0.04  -0.57  -0.30     0.07   0.02  -0.00     0.03  -0.02  -0.01
     5   8    -0.01  -0.04  -0.03    -0.02   0.05  -0.08    -0.03   0.06  -0.09
     6   1     0.03  -0.08  -0.04    -0.00  -0.03   0.13    -0.03  -0.00   0.15
     7   1    -0.00  -0.04  -0.03    -0.01  -0.21   0.48    -0.03  -0.20   0.49
     8   8    -0.04   0.02   0.01    -0.00  -0.03   0.04     0.00  -0.04   0.03
     9   1    -0.08   0.06   0.01    -0.23   0.16  -0.01    -0.21   0.15  -0.01
    10   1    -0.01   0.04   0.01     0.24  -0.07  -0.23     0.24  -0.06  -0.22
    11   8    -0.02   0.04  -0.05    -0.01  -0.07  -0.08     0.03   0.08   0.07
    12   1     0.00  -0.02  -0.13    -0.02   0.29   0.41     0.05  -0.29  -0.44
    13   1     0.02   0.12  -0.04     0.02   0.05   0.12     0.01  -0.03  -0.14
    14   8    -0.05  -0.02   0.03    -0.01   0.04   0.03    -0.01  -0.04  -0.03
    15   1     0.03  -0.05  -0.03     0.23   0.03  -0.25    -0.24  -0.02   0.24
    16   1    -0.15  -0.11   0.05    -0.24  -0.17   0.02     0.23   0.15  -0.00
                     19                     20                     21
                      A                      A                      A
 Frequencies --    550.0754               610.8108               647.9018
 Red. masses --      1.1798                 4.0942                 2.9032
 Frc consts  --      0.2103                 0.9000                 0.7180
 IR Inten    --    377.2556               118.9067               477.4008
  Atom  AN      X      Y      Z        X      Y      Z        X      Y      Z
     1  80     0.00   0.00   0.00    -0.00   0.00  -0.00    -0.03  -0.00  -0.01
     2   8    -0.10   0.00   0.02     0.02   0.00  -0.01    -0.01   0.00   0.00
     3   1     0.67  -0.11  -0.11    -0.18   0.02   0.03     0.06   0.03  -0.04
     4   1     0.67  -0.14  -0.09    -0.15   0.03   0.02     0.06  -0.05  -0.03
     5   8    -0.02  -0.02  -0.01    -0.28   0.01  -0.01     0.22  -0.00   0.03
     6   1    -0.06   0.00  -0.02    -0.37   0.05   0.04     0.36   0.00   0.00
     7   1    -0.01   0.02  -0.10    -0.21   0.06  -0.14     0.12   0.01   0.05
     8   8    -0.01   0.00  -0.01     0.10  -0.06  -0.09    -0.05   0.06   0.08
     9   1     0.04   0.04   0.09     0.20   0.03   0.12    -0.12  -0.21  -0.30
    10   1    -0.05   0.04   0.07     0.05   0.16   0.18    -0.04  -0.30  -0.30
    11   8     0.02   0.01  -0.01     0.29   0.02   0.01     0.20   0.02   0.03
    12   1     0.01  -0.02  -0.04     0.21   0.10   0.15     0.11   0.00   0.05
    13   1     0.02   0.00  -0.01     0.40   0.04  -0.05     0.33  -0.00  -0.01
    14   8    -0.02  -0.00   0.01    -0.10  -0.05   0.10    -0.04  -0.05   0.08
    15   1    -0.02  -0.00   0.01    -0.05   0.16  -0.23    -0.05   0.24  -0.30
    16   1    -0.01  -0.03   0.05    -0.22   0.05  -0.17    -0.12   0.16  -0.28
                     22                     23                     24
                      A                      A                      A
 Frequencies --    689.2937               696.9855               932.0100
 Red. masses --      1.2075                 1.4208                 1.0481
 Frc consts  --      0.3380                 0.4067                 0.5364
 IR Inten    --    265.5751               329.1219              1178.2913
  Atom  AN      X      Y      Z        X      Y      Z        X      Y      Z
     1  80    -0.00  -0.00  -0.00    -0.01  -0.00  -0.00     0.00  -0.00  -0.00
     2   8     0.00  -0.00  -0.00     0.01  -0.00  -0.00    -0.00  -0.00  -0.00
     3   1    -0.03  -0.00   0.00    -0.05   0.00   0.01    -0.01  -0.01   0.01
     4   1    -0.01   0.00   0.00    -0.06   0.02   0.01    -0.01   0.01   0.01
     5   8     0.06   0.02   0.01     0.09   0.02   0.01    -0.00   0.00  -0.01
     6   1    -0.04  -0.07  -0.08     0.01  -0.06  -0.07    -0.47  -0.07   0.05
     7   1     0.13  -0.04   0.11     0.14  -0.04   0.11     0.58  -0.11  -0.01
     8   8    -0.03  -0.05  -0.04    -0.03  -0.03  -0.02    -0.01   0.03   0.02
     9   1    -0.05   0.36   0.39    -0.06   0.29   0.31     0.05  -0.10  -0.05
    10   1     0.02   0.37   0.33     0.01   0.29   0.26    -0.05  -0.03  -0.02
    11   8    -0.04   0.01  -0.01     0.10  -0.01   0.02    -0.00  -0.00  -0.01
    12   1    -0.09  -0.05  -0.07     0.16   0.08   0.12     0.47   0.11  -0.02
    13   1     0.04  -0.05   0.06     0.00   0.06  -0.08    -0.37   0.07   0.02
    14   8     0.02  -0.04   0.04    -0.04   0.04  -0.04    -0.01  -0.02   0.02
    15   1    -0.03   0.28  -0.32     0.03  -0.33   0.38    -0.04   0.03  -0.02
    16   1     0.01   0.26  -0.36    -0.04  -0.32   0.43     0.03   0.07  -0.05
                     25                     26                     27
                      A                      A                      A
 Frequencies --    956.9294              1182.4870              1298.7867
 Red. masses --      1.0412                 1.2279                 1.1810
 Frc consts  --      0.5617                 1.0116                 1.1738
 IR Inten    --      5.5647              5502.7387               752.9780
  Atom  AN      X      Y      Z        X      Y      Z        X      Y      Z
     1  80    -0.00   0.00  -0.00     0.00   0.00   0.00     0.00  -0.00   0.00
     2   8    -0.00   0.00   0.00     0.00  -0.00  -0.00    -0.00   0.00   0.00
     3   1     0.02   0.00  -0.00    -0.04  -0.01   0.01     0.01   0.01  -0.00
     4   1     0.01   0.00  -0.00    -0.04   0.02   0.02     0.00   0.01   0.00
     5   8     0.01  -0.01   0.00     0.06  -0.05  -0.04    -0.04   0.03   0.03
     6   1     0.34   0.09  -0.00    -0.40   0.37   0.44     0.33  -0.24  -0.38
     7   1    -0.50   0.09  -0.01    -0.34   0.04  -0.09     0.15  -0.01   0.06
     8   8     0.00  -0.02  -0.01    -0.03   0.00   0.01     0.02  -0.01   0.00
     9   1    -0.04   0.08   0.04     0.05  -0.02   0.07    -0.08   0.04  -0.06
    10   1     0.04   0.03   0.01     0.06   0.07  -0.01    -0.05  -0.07   0.01
    11   8    -0.01  -0.02   0.00     0.05   0.03  -0.04     0.06   0.04  -0.04
    12   1     0.63   0.14  -0.01    -0.24  -0.05  -0.06    -0.20  -0.04  -0.07
    13   1    -0.40   0.13  -0.04    -0.32  -0.23   0.35    -0.48  -0.25   0.51
    14   8    -0.00  -0.02   0.02    -0.02  -0.00   0.01    -0.03  -0.01   0.00
    15   1    -0.04   0.04  -0.02     0.04  -0.05  -0.01     0.08  -0.08  -0.02
    16   1     0.04   0.08  -0.06     0.04   0.02   0.05     0.10   0.06   0.06
                     28                     29                     30
                      A                      A                      A
 Frequencies --   1488.8891              1498.3563              1700.4587
 Red. masses --      1.0531                 1.0516                 1.0759
 Frc consts  --      1.3755                 1.3910                 1.8330
 IR Inten    --    377.6764               195.9647               495.1364
  Atom  AN      X      Y      Z        X      Y      Z        X      Y      Z
     1  80    -0.00  -0.00   0.00    -0.00   0.00   0.00     0.00  -0.00   0.00
     2   8    -0.00   0.00   0.00     0.00  -0.00   0.00    -0.00  -0.00   0.00
     3   1     0.00  -0.01   0.00     0.01  -0.00   0.00     0.01   0.01  -0.01
     4   1     0.01   0.00   0.00    -0.00  -0.00   0.00     0.01   0.01   0.00
     5   8    -0.02   0.01  -0.02     0.01  -0.00   0.00     0.01   0.01   0.00
     6   1     0.40  -0.35   0.73    -0.13   0.11  -0.17    -0.07  -0.14  -0.00
     7   1     0.15  -0.05   0.02    -0.04   0.01  -0.01    -0.08   0.01   0.02
     8   8    -0.01   0.02  -0.04     0.00  -0.01   0.01     0.01   0.00  -0.00
     9   1     0.17  -0.12   0.01    -0.04   0.03   0.00    -0.05   0.02  -0.04
    10   1    -0.13   0.08   0.16     0.04  -0.02  -0.04    -0.08  -0.03   0.04
    11   8    -0.00  -0.00  -0.01    -0.01  -0.01  -0.02     0.05  -0.02   0.01
    12   1     0.02   0.01   0.00     0.10   0.05   0.02    -0.43  -0.03   0.12
    13   1     0.06   0.12   0.20     0.35   0.53   0.65    -0.44   0.58  -0.18
    14   8    -0.00  -0.01  -0.01    -0.01  -0.03  -0.03     0.04  -0.02  -0.00
    15   1    -0.03  -0.02   0.04    -0.14  -0.05   0.17    -0.30   0.14   0.13
    16   1     0.06   0.04  -0.00     0.17   0.13  -0.03    -0.20  -0.08  -0.14
                     31                     32                     33
                      A                      A                      A
 Frequencies --   1707.5240              1728.9602              1784.4237
 Red. masses --      1.0761                 1.0876                 1.0698
 Frc consts  --      1.8486                 1.9155                 2.0069
 IR Inten    --    288.0322                88.6489               511.5478
  Atom  AN      X      Y      Z        X      Y      Z        X      Y      Z
     1  80    -0.00  -0.00   0.00    -0.00   0.00   0.00    -0.00  -0.00  -0.00
     2   8    -0.00  -0.01   0.00    -0.01  -0.07   0.00    -0.00  -0.00   0.00
     3   1     0.00   0.09  -0.07     0.03   0.55  -0.42     0.00   0.00  -0.00
     4   1     0.02   0.09   0.05     0.14   0.58   0.36     0.00   0.00   0.00
     5   8    -0.04  -0.02  -0.00     0.01   0.00  -0.00     0.01   0.01   0.01
     6   1     0.40   0.63   0.01    -0.06  -0.09   0.00    -0.09  -0.35  -0.15
     7   1     0.41  -0.04  -0.10    -0.06   0.01   0.01    -0.16   0.02   0.05
     8   8    -0.04  -0.02   0.01     0.01   0.00  -0.00    -0.05   0.01   0.00
     9   1     0.18  -0.05   0.16    -0.03   0.01  -0.02     0.45  -0.28   0.17
    10   1     0.32   0.12  -0.15    -0.05  -0.02   0.02     0.42   0.18  -0.21
    11   8     0.01  -0.00   0.00    -0.00   0.00   0.00     0.01  -0.01   0.01
    12   1    -0.09  -0.01   0.02     0.03   0.00  -0.01    -0.10  -0.01   0.03
    13   1    -0.10   0.12  -0.04     0.03  -0.03   0.01    -0.07   0.17  -0.13
    14   8     0.01  -0.00   0.00    -0.00   0.00  -0.00    -0.03  -0.01   0.00
    15   1    -0.05   0.03   0.02     0.01  -0.00  -0.00     0.24  -0.12  -0.12
    16   1    -0.03  -0.01  -0.03     0.00   0.00   0.00     0.26   0.17   0.07
                     34                     35                     36
                      A                      A                      A
 Frequencies --   1789.4107              3682.9717              3683.4752
 Red. masses --      1.0698                 1.0404                 1.0405
 Frc consts  --      2.0182                 8.3144                 8.3176
 IR Inten    --    152.9323               180.6476                13.9085
  Atom  AN      X      Y      Z        X      Y      Z        X      Y      Z
     1  80    -0.00   0.00  -0.00    -0.00  -0.00  -0.00    -0.00   0.00  -0.00
     2   8     0.00  -0.00  -0.00     0.00  -0.00   0.00     0.00   0.00  -0.00
     3   1    -0.00   0.00  -0.00     0.00   0.00   0.00    -0.00  -0.01  -0.01
     4   1     0.00   0.00   0.00    -0.00   0.00  -0.00     0.00  -0.01   0.01
     5   8    -0.00  -0.01  -0.00     0.00   0.00   0.00    -0.00  -0.00  -0.00
     6   1     0.03   0.20   0.09    -0.02  -0.00  -0.00     0.01   0.00   0.00
     7   1     0.08  -0.01  -0.03    -0.00  -0.02  -0.01     0.00   0.02   0.01
     8   8     0.03  -0.01  -0.00    -0.04  -0.00  -0.00     0.02   0.00   0.00
     9   1    -0.26   0.16  -0.10     0.34   0.38  -0.34    -0.20  -0.23   0.21
    10   1    -0.24  -0.10   0.12     0.30  -0.37   0.36    -0.18   0.22  -0.22
    11   8     0.01  -0.01   0.01     0.00  -0.00  -0.00     0.00  -0.00   0.00
    12   1    -0.15  -0.01   0.06    -0.00   0.01  -0.00    -0.01   0.03  -0.02
    13   1    -0.07   0.30  -0.24    -0.01   0.00   0.00    -0.02   0.00  -0.00
    14   8    -0.05  -0.01   0.01    -0.02  -0.00   0.00    -0.04  -0.00   0.00
    15   1     0.42  -0.21  -0.22     0.19   0.25   0.18     0.32   0.41   0.31
    16   1     0.45   0.29   0.13     0.19  -0.25  -0.19     0.32  -0.41  -0.31
                     37                     38                     39
                      A                      A                      A
 Frequencies --   3714.5132              3716.0024              3719.9059
 Red. masses --      1.0412                 1.0643                 1.0654
 Frc consts  --      8.4644                 8.6591                 8.6864
 IR Inten    --     74.3214               135.0357               145.0870
  Atom  AN      X      Y      Z        X      Y      Z        X      Y      Z
     1  80     0.00   0.00  -0.00    -0.00  -0.00  -0.00     0.00  -0.00   0.00
     2   8     0.01   0.04  -0.00     0.00   0.01  -0.00     0.00   0.00   0.00
     3   1    -0.14  -0.37  -0.55    -0.03  -0.08  -0.12    -0.01  -0.01  -0.02
     4   1     0.02  -0.34   0.61     0.00  -0.08   0.13     0.00  -0.01   0.02
     5   8    -0.00  -0.00  -0.00     0.00   0.01   0.01    -0.01  -0.05  -0.03
     6   1     0.00   0.00   0.00     0.01   0.00  -0.00    -0.02  -0.02   0.01
     7   1     0.00   0.02   0.01    -0.04  -0.22  -0.10     0.15   0.87   0.40
     8   8    -0.00  -0.00   0.00    -0.00  -0.00  -0.00    -0.00   0.00  -0.00
     9   1     0.01   0.01  -0.01     0.00   0.00  -0.00     0.01   0.01  -0.01
    10   1     0.00  -0.00   0.00     0.00  -0.00   0.00     0.01  -0.02   0.01
    11   8    -0.00   0.01  -0.01     0.01  -0.05   0.03     0.00  -0.01   0.01
    12   1     0.04  -0.17   0.12    -0.18   0.75  -0.55    -0.05   0.20  -0.14
    13   1    -0.01   0.00   0.00     0.02  -0.02  -0.00     0.00  -0.01   0.00
    14   8     0.00  -0.00  -0.00     0.00   0.00  -0.00     0.00   0.00   0.00
    15   1    -0.00  -0.00  -0.00    -0.01  -0.02  -0.01    -0.01  -0.01  -0.01
    16   1    -0.00   0.00   0.00    -0.01   0.02   0.01    -0.01   0.01   0.01
                     40                     41                     42
                      A                      A                      A
 Frequencies --   3785.9880              3786.0634              3823.3384
 Red. masses --      1.0845                 1.0845                 1.0843
 Frc consts  --      9.1588                 9.1591                 9.3385
 IR Inten    --    191.4975               218.1009               147.7971
  Atom  AN      X      Y      Z        X      Y      Z        X      Y      Z
     1  80    -0.00   0.00  -0.00     0.00   0.00   0.00     0.00   0.00   0.00
     2   8     0.00  -0.00   0.00    -0.00  -0.00  -0.00    -0.01  -0.00  -0.07
     3   1    -0.00  -0.00  -0.00     0.00   0.00   0.00     0.16   0.44   0.55
     4   1     0.00   0.00  -0.00    -0.00  -0.00   0.00     0.00  -0.39   0.57
     5   8    -0.00   0.00  -0.00    -0.00  -0.00   0.00    -0.00  -0.00  -0.00
     6   1    -0.00   0.00  -0.00     0.00  -0.00   0.00    -0.00  -0.00   0.00
     7   1     0.00   0.00   0.00     0.00   0.00   0.00     0.00   0.00   0.00
     8   8     0.00   0.01  -0.01    -0.00  -0.05   0.05    -0.00   0.00  -0.00
     9   1    -0.09  -0.09   0.08     0.42   0.40  -0.35    -0.00  -0.00   0.00
    10   1     0.08  -0.09   0.09    -0.39   0.41  -0.41     0.00  -0.00   0.00
    11   8     0.00  -0.00  -0.00     0.00  -0.00   0.00    -0.00   0.00  -0.00
    12   1    -0.00   0.00  -0.00    -0.00   0.00  -0.00     0.00  -0.00   0.00
    13   1    -0.00  -0.00  -0.00     0.00  -0.00  -0.00    -0.00   0.00   0.00
    14   8    -0.00  -0.06  -0.04    -0.00  -0.01  -0.01    -0.00  -0.00  -0.00
    15   1     0.41   0.44   0.34     0.09   0.10   0.07     0.00   0.00   0.00
    16   1    -0.41   0.45   0.33    -0.09   0.10   0.07    -0.00   0.00   0.00

 -------------------
 - Thermochemistry -
 -------------------
 Temperature   298.150 Kelvin.  Pressure   1.00000 Atm.
 Atom     1 has atomic number 80 and mass 201.97060
 Atom     2 has atomic number  8 and mass  15.99491
 Atom     3 has atomic number  1 and mass   1.00783
 Atom     4 has atomic number  1 and mass   1.00783
 Atom     5 has atomic number  8 and mass  15.99491
 Atom     6 has atomic number  1 and mass   1.00783
 Atom     7 has atomic number  1 and mass   1.00783
 Atom     8 has atomic number  8 and mass  15.99491
 Atom     9 has atomic number  1 and mass   1.00783
 Atom    10 has atomic number  1 and mass   1.00783
 Atom    11 has atomic number  8 and mass  15.99491
 Atom    12 has atomic number  1 and mass   1.00783
 Atom    13 has atomic number  1 and mass   1.00783
 Atom    14 has atomic number  8 and mass  15.99491
 Atom    15 has atomic number  1 and mass   1.00783
 Atom    16 has atomic number  1 and mass   1.00783
 Molecular mass:   292.02342 amu.
 Principal axes and moments of inertia in atomic units:
                           1         2         3
     Eigenvalues --   554.718992600.793012942.93553
           X            1.00000   0.00134   0.00030
           Y           -0.00134   1.00000  -0.00075
           Z           -0.00030   0.00075   1.00000
 This molecule is an asymmetric top.
 Rotational symmetry number  1.
 Warning -- assumption of classical behavior for rotation
[...]
   zy        -0.684198D+01     -0.101388D+01     -0.112809D+01
   zz         0.507761D+02      0.752424D+01      0.837184D+01

 ----------------------------------------------------------------------

 Dipole orientation:
    80         -1.11900003         -5.06629709         -1.87004504
     8         -3.87198995         -7.90373037          0.74623685
     1         -3.30018934         -9.42637267          1.60362914
     1         -5.37777034         -7.36057381          1.65171622
     8         -3.89936707         -5.04705792         -4.56261632
     1         -4.65904556         -6.83656701         -5.50212638
     1         -3.71230478         -3.68888071         -5.79536225
     8         -5.61596087         -8.88459393         -6.43666597
     1         -5.10708131         -9.38226618         -8.13726870
     1         -7.45162361         -9.03373474         -6.35063056
     8          1.87142713         -4.87953072          0.58627043
     1          3.49239949         -4.68767779         -0.27213589
     1          1.85166891         -3.73291806          2.40729690
     8          1.75708822         -2.58775272          4.57850443
     1          2.40176903         -3.52784790          6.02774730
     1          2.42527601         -0.87373398          4.69783984

 Electric dipole moment (dipole orientation):
 (Debye = 10**-18 statcoulomb cm , SI units = C m)
                  (au)            (Debye)         (10**-30 SI)
   Tot        0.293193D+00      0.745222D+00      0.248579D+01
   x          0.000000D+00      0.000000D+00      0.000000D+00
   y          0.000000D+00      0.000000D+00      0.000000D+00
   z          0.293193D+00      0.745222D+00      0.248579D+01

 Dipole polarizability, Alpha (dipole orientation).
 (esu units = cm**3 , SI units = C**2 m**2 J**-1)
 Alpha(0;0):
               (au)            (10**-24 esu)      (10**-40 SI)
   iso        0.504539D+02      0.747649D+01      0.831872D+01
   aniso      0.245623D+02      0.363976D+01      0.404978D+01
   xx         0.505456D+02      0.749008D+01      0.833384D+01
   yx         0.679909D+01      0.100752D+01      0.112102D+01
   yy         0.444218D+02      0.658263D+01      0.732416D+01
   zx         0.989535D+01      0.146634D+01      0.163152D+01
   zy         0.459517D+01      0.680935D+00      0.757642D+00
   zz         0.563943D+02      0.835677D+01      0.929816D+01

 ----------------------------------------------------------------------
 1\1\GINC-CTCP002\Freq\RMP2-Full\SDDAll\H10Hg1O5(2+)\FLOREZ\11-May-2022
 \0\\#p MP2(full) SDDAll freq\\file 'w5s5.log' Now we use Def2-QZVPPD, 
 but it was opt at: ---' #p ZORA-SR+SO PBE QZ4P'---\\2,1\Hg,-0.793279,-
 2.698549,0.778496\O,0.633647,-3.947996,2.420562\H,1.167628,-4.733518,2
 .209705\H,1.045462,-3.554927,3.209892\O,-2.288279,-2.690439,2.178477\H
 ,-2.725379,-3.640474,2.638811\H,-2.991947,-2.04188,1.988415\O,-3.15392
 3,-4.71744,3.215036\H,-4.013776,-5.079491,2.929903\H,-3.152332,-4.7113
 17,4.19067\O,0.574014,-2.618524,-0.747158\H,0.157906,-2.628346,-1.6298
 79\H,1.482217,-1.931466,-0.746655\O,2.572856,-1.225767,-0.698435\H,3.3
 94977,-1.681204,-0.960554\H,2.578821,-0.349132,-1.126423\\Version=ES64
 L-G16RevA.03\State=1-A\HF=-236.5009775\MP2=-237.2896771\RMSD=3.512e-09
 \RMSF=7.852e-03\ZeroPoint=0.1195152\Thermal=0.1299844\Dipole=0.29179,0
 .0255043,0.013046\DipoleDeriv=1.6897428,-0.0485223,-0.3315075,-0.10994
 91,1.0687091,-0.1959173,-0.3510213,-0.2650748,1.6655581,-0.7050046,-0.
 0210766,0.0246016,0.0008462,-0.6688578,0.1816523,0.0145361,0.1969713,-
 0.7590133,0.323952,0.0886185,-0.0487515,0.0760239,0.3791681,-0.0325226
 ,-0.0673465,-0.012324,0.358124,0.3455554,0.0416275,-0.0983889,0.042452
 2,0.3511587,-0.0058882,-0.0777153,-0.0282959,0.3602469,-0.9416226,-0.2
 854695,0.3875768,-0.3742074,-1.0093324,0.3668119,0.3619889,0.2113425,-
 0.9272739,0.6439822,0.4194622,-0.3340445,0.7781581,1.298117,-0.8576905
 ,-0.3937447,-0.5147828,0.7737176,0.3348131,0.0188921,-0.0223635,-0.080
 5213,0.3665101,0.1195509,0.0607813,0.0676084,0.3040951,-0.6753455,-0.0
 658421,0.1396971,-0.2673829,-1.1021153,0.3729378,0.1857922,0.2106791,-
 0.6967046,0.3722672,-0.0379192,-0.0164557,-0.006115,0.467287,0.0376559
 ,0.0275421,0.0690336,0.359464,0.4001539,-0.0778387,0.058385,-0.0555783
 ,0.4243673,-0.0258543,-0.0000851,-0.0189782,0.3996968,-1.2941708,-0.33
 40242,0.3491434,-0.4537569,-0.8333155,0.1205657,0.2539917,0.0586244,-0
 .7450499,0.2374278,-0.0327405,0.0743064,-0.0190303,0.3951736,0.0650102
 ,-0.0569166,0.0295589,0.3861246,1.6127333,0.6821341,-0.3269997,0.87236
 3,0.798531,-0.2379301,0.0500822,0.0007463,0.297148,-1.1093898,-0.33148
 16,0.0853627,-0.3964488,-0.728577,0.0413538,-0.1252988,-0.0883911,-0.6
 546113,0.4232665,-0.0073826,0.0344426,-0.0382602,0.3623672,0.0164608,0
 .08966,0.0033049,0.4463465,0.3416392,-0.008437,0.0249957,0.0314068,0.4
 308089,0.0338035,0.0277537,0.0799774,0.4321315\Polar=56.4990348,5.1413
 899,44.0865151,-9.4477732,-6.8419821,50.7760656\PG=C01 [X(H10Hg1O5)]\N
 Imag=5\\0.21250359,0.00222556,0.03817503,-0.16928520,-0.01153349,0.221
 56559,-0.01192172,0.00504885,-0.00573155,0.28872296,0.00137439,-0.0119
 3917,0.00246088,-0.15349910,0.45423532,-0.00246352,0.00203454,-0.01364
 306,0.13159529,0.24541584,0.40542089,0.00074772,0.00192628,0.00027772,
 -0.16462144,0.22683843,0.05641066,0.15567856,0.00276163,-0.00056851,0.
 00022064,0.18709952,-0.32768470,-0.10974029,-0.21060866,0.34447636,-0.
 00181264,0.00269545,0.00339125,0.02071672,-0.07297895,-0.06263484,-0.0
 4160341,0.11210343,0.06922505,0.00177334,-0.00149572,-0.00253131,-0.11
 103462,-0.07934722,-0.18255201,0.00965926,0.02158915,0.02279569,0.1009
 8988,0.00074168,0.00323173,0.00176883,-0.04133438,-0.11446295,-0.13972
 763,-0.01848241,-0.01652528,-0.04174364,0.05909318,0.12866212,-0.00294
 804,-0.00045228,-0.00115829,-0.14352835,-0.17614434,-0.32749282,-0.015
 43327,-0.00270004,-0.00895669,0.16096674,0.17882811,0.33828862,-0.0942
 4566,-0.00434061,0.09184999,-0.00408185,0.00462679,-0.00263175,-0.0011
 1221,-0.00050312,-0.00106335,-0.00040849,0.00029101,0.00035871,0.42694
 948,0.00988373,-0.02812657,-0.00095326,0.00259059,0.00140252,-0.000639
 29,-0.00015120,-0.00032987,0.00044348,-0.00001554,-0.00114233,0.000429
 67,-0.18676868,0.38771849,0.06001897,0.01088145,-0.08742091,0.00024380
 ,-0.00145266,0.00358233,0.00020945,0.00021247,-0.00009507,0.00149026,-
 0.00039515,-0.00070218,-0.04966505,-0.12432449,0.16243517,-0.00781270,
 -0.00445364,0.00743519,0.00189811,-0.00058831,-0.00042408,0.00009560,0
 .00035852,0.00009814,-0.00067962,0.00005429,-0.00013409,-0.06106859,-0
 .01548346,0.01434685,0.08117574,-0.01423583,0.01377353,0.00191365,0.00
 024064,-0.00466175,0.00296888,0.00135673,0.00092126,-0.00016212,0.0003
 6597,0.00087999,-0.00069638,0.01892219,-0.06583232,0.00921843,-0.01515
 655,0.05686476,0.01340049,0.00130106,-0.00784112,-0.00036137,0.0017613
 3,-0.00245408,-0.00034850,-0.00033762,0.00022865,-0.00079473,-0.000307
 93,0.00069015,-0.00249334,0.00438946,-0.03407199,0.00598709,0.00536589
 ,0.07132261,-0.01023005,0.00803864,-0.00014251,-0.00053428,0.00034068,
 0.00029421,-0.00013983,-0.00000042,-0.00023157,-0.00002983,0.00016945,
 -0.00003571,-0.27025789,0.22469345,-0.04765789,0.01197996,-0.00511773,
 -0.00145225,0.27086190,-0.00005634,0.00313441,0.00272575,-0.00065457,0
 .00064322,-0.00042765,-0.00010395,0.00003961,-0.00009741,-0.00001364,0
 .00010300,0.00006009,0.20183701,-0.23796228,0.06556351,0.02746674,-0.0
 0749492,0.00343618,-0.22286736,0.24576342,0.01521839,-0.00877054,-0.00
 282257,0.00034776,-0.00013652,0.00043847,0.00007232,-0.00001487,0.0001
 2041,0.00021050,-0.00002073,0.00007531,-0.05047976,0.07809263,-0.04010
 733,-0.01428696,0.00008230,0.00442561,0.04650546,-0.07407836,0.0394221
 0,0.00208334,0.00002080,-0.00273732,-0.00130193,-0.00079033,0.00078555
 ,0.00049298,0.00012200,-0.00029958,0.00045118,0.00029490,-0.00005937,-
 0.00016624,-0.02955104,0.01848870,-0.02866669,0.00273972,-0.01638640,-
 0.00334629,-0.00481005,0.00320976,0.45175241,0.00917270,-0.00617599,-0
 .00379775,-0.00056447,0.00264563,-0.00125915,-0.00087465,-0.00073055,0
 .00006117,0.00002181,-0.00050022,0.00026976,-0.03401908,-0.05207589,0.
 03953253,0.01565659,-0.00568376,-0.02161452,-0.00350951,-0.00222486,0.
 00224200,0.20361104,0.18666333,-0.00553285,0.00125268,0.00235099,0.000
 02102,-0.00087033,0.00152524,0.00010151,0.00009882,-0.00024210,0.00055
 347,0.00023302,-0.00046235,0.02036679,0.03714439,-0.00731342,-0.019761
 35,-0.01058814,-0.03831506,0.00238618,0.00080934,-0.00187058,0.1167446
 1,0.01473456,0.62478706,-0.00051186,-0.00041709,0.00030992,0.00013167,
 0.00022854,-0.00001875,-0.00017328,-0.00010509,0.00001952,-0.00003394,
 -0.00005934,-0.00000119,0.00212381,0.00185292,-0.00097243,-0.00420880,
 -0.00064222,-0.00042494,-0.00001936,-0.00017539,-0.00010986,-0.3733276
 6,-0.16447961,-0.13896097,0.37784167,-0.00100373,0.00017616,0.00049968
 ,0.00025178,-0.00026985,-0.00005664,0.00007817,0.00014211,0.00005578,-
 0.00012019,0.00003799,0.00003317,0.00140447,-0.00338638,0.00315942,-0.
 01268284,0.00230175,-0.00894018,-0.00108776,-0.00175570,0.00068130,-0.
 14930394,-0.08855520,-0.04605322,0.16582330,0.08461604,0.00008599,0.00
 074580,0.00069200,0.00019942,-0.00002845,-0.00030907,0.00003680,0.0000
 4561,0.00011853,-0.00014271,-0.00001573,0.00007700,0.00144492,0.005777
 20,-0.00529978,0.00444848,-0.00739640,0.01248601,0.00043437,0.00119034
 ,0.00008964,-0.08757489,-0.02781317,-0.09985504,0.13077570,0.04869526,
 0.10759236,0.00124784,-0.00062953,0.00064566,0.00063964,0.00074706,-0.
 00127617,-0.00033915,-0.00009451,0.00031574,-0.00066735,-0.00033519,0.
 00035416,-0.00283854,-0.00423384,0.00093449,0.00607040,0.00814864,0.00
 381989,0.00010793,-0.00000244,-0.00022452,-0.04749705,-0.02349874,0.02
 353156,-0.00194876,-0.00347961,-0.04984499,0.04532887,-0.00051575,0.00
 011058,0.00010505,0.00007434,-0.00055934,0.00002052,0.00021669,0.00021
 225,-0.00009004,-0.00017394,0.00021134,0.00006856,-0.00288739,-0.00661
 163,-0.00040725,0.00461439,0.01043674,0.01480792,-0.00027529,-0.000278
 12,0.00101677,-0.02246614,-0.03404488,0.00352693,-0.00200873,0.0066814
 2,-0.02114432,0.02332748,0.02380931,0.00096819,0.00000259,-0.00041689,
 -0.00038330,-0.00005367,-0.00011149,0.00012084,0.00004028,0.00001438,0
 .00001167,0.00002777,0.00015682,-0.00245220,-0.00215026,0.00181854,0.0
 0282723,0.00061300,-0.00727969,0.00033854,0.00037447,0.00007612,-0.032
 48609,-0.00298163,-0.48027831,0.00945063,0.00199840,-0.01551167,0.0217
 7015,0.00207516,0.50142670,-0.08912299,-0.00389026,0.05119265,0.003384
 09,0.00010264,0.00113471,-0.00076653,-0.00064178,0.00093403,-0.0003519
 7,-0.00069737,0.00055343,0.00362385,-0.00364728,0.00599132,0.00215633,
 0.00581867,-0.00236733,0.00214135,-0.00105569,-0.00075420,-0.00089101,
 -0.00277323,0.00138713,0.00028045,0.00026770,0.00002537,-0.00020877,0.
 00019804,-0.00043880,0.31901111,-0.01303155,-0.01614445,0.00286159,0.0
 0080392,0.00097971,0.00206275,-0.00030828,0.00004415,-0.00105432,-0.00
 007119,-0.00079047,0.00018935,0.00033986,0.00547528,0.00020098,0.00070
 267,-0.00011859,-0.00066880,-0.00002140,-0.00051903,0.00088637,-0.0002
 1737,0.00010240,0.00028603,0.00015532,0.00001247,-0.00016865,0.0000485
 5,0.00002109,-0.00013614,0.09871844,0.10312423,0.08548408,-0.00437939,
 -0.10200798,-0.00210151,0.00281206,-0.00465037,-0.00009025,-0.00052515
 ,-0.00077789,-0.00018721,0.00097713,0.00002640,-0.00370855,0.00297144,
 0.00535288,-0.00109979,-0.00254422,0.00139234,-0.00075407,0.00056686,0
 .00025298,0.00064756,0.00128482,-0.00062819,-0.00016560,-0.00015791,-0
 .00014079,-0.00007580,-0.00003760,0.00018989,0.10484158,0.00003902,0.5
 5436627,0.00054768,0.00190355,0.01813658,0.00027165,-0.00054430,0.0007
 3145,0.00003962,0.00002340,0.00008657,0.00005243,-0.00010185,-0.000002
 07,-0.00051388,-0.00059210,-0.00088030,0.00008302,0.00029754,-0.000094
 92,-0.00001351,-0.00002034,0.00017271,-0.00011029,-0.00015282,0.000036
 99,0.00002348,0.00001072,0.00007292,0.00004158,-0.00000653,0.00000127,
 -0.12253750,-0.02651084,-0.16747014,0.12639174,0.00059591,0.00319721,-
 0.00077459,0.00014690,-0.00040614,0.00071796,0.00012084,0.00023861,0.0
 0015260,0.00006569,-0.00006995,0.00002225,-0.00006808,0.00003994,0.000
 10342,0.00018880,0.00038859,-0.00005988,-0.00000221,0.00002845,-0.0000
 6657,-0.00004609,-0.00026713,-0.00001393,-0.00002800,0.00006740,0.0000
 7898,-0.00000164,0.00004106,0.00000586,-0.01235890,-0.02038544,0.00896
 553,0.02183785,0.01468975,-0.00279637,0.00154575,-0.01340154,0.0001953
 8,-0.00018006,0.00004650,-0.00003202,0.00005567,-0.00010900,-0.0000151
 0,0.00011725,-0.00004944,-0.00113397,-0.00086243,0.00228595,0.00052273
 ,0.00137049,-0.00059144,0.00034143,-0.00017070,-0.00007712,-0.00026507
 ,-0.00070001,0.00034319,0.00008097,0.00007630,0.00003508,-0.00001283,0
 .00005698,-0.00009717,-0.17039564,-0.01430719,-0.40347008,0.17340564,0
 .00875411,0.41431700,-0.00750963,-0.00289791,0.02020949,-0.00278795,0.
 00069208,-0.00266762,0.00080112,0.00011789,0.00000469,0.00052361,0.000
 73039,-0.00025264,0.00309832,0.00194173,-0.00447980,-0.00171639,-0.004
 58006,0.00249346,-0.00087636,0.00091921,0.00012346,0.00087563,0.002331
 60,-0.00144272,-0.00029872,-0.00025260,0.00006157,0.00010560,-0.000150
 31,0.00044854,-0.05108850,-0.00895115,-0.01703777,0.00169336,-0.006239
 34,-0.00307619,0.06202627,0.00154924,0.00221646,0.01052876,-0.00075265
 ,0.00036383,-0.00223135,0.00019325,-0.00033510,0.00064535,0.00018869,0
 .00056865,0.00008971,0.00187425,0.00125625,-0.00374619,-0.00114127,-0.
 00305213,0.00152065,-0.00059500,0.00081689,0.00013227,0.00062360,0.001
 49787,-0.00094461,-0.00021960,-0.00014386,0.00004724,0.00003791,-0.000
 07637,0.00030248,-0.02860454,-0.05059942,-0.01084881,0.00922904,0.0056
 4937,0.00270208,-0.01168859,0.06404799,0.01076420,0.00527756,0.0017256
 8,-0.00145974,-0.00082466,0.00020328,0.00024962,0.00058042,-0.00024202
 ,0.00022778,0.00042238,-0.00063060,-0.00034851,-0.00027876,-0.00068481
 ,-0.00001901,-0.00033163,0.00008688,-0.00006924,0.00007473,-0.00002395
 ,-0.00003720,0.00013635,-0.00008486,0.00000432,-0.00000220,0.00002232,
 0.00006703,-0.00000566,0.00002416,0.00924532,0.01144259,-0.06361613,-0
 .02634719,-0.01988438,0.00052583,0.00384484,-0.00161764,0.08705421,0.0
 0309448,0.00028208,-0.01076650,0.00140588,-0.00044003,0.00150312,-0.00
 043819,-0.00002267,-0.00006024,-0.00032659,-0.00034671,0.00006869,-0.0
 0147528,-0.00098164,0.00235148,0.00094988,0.00253257,-0.00134722,0.000
 48297,-0.00048185,-0.00006209,-0.00046998,-0.00128790,0.00078551,0.000
 15614,0.00014418,-0.00003293,-0.00006443,0.00008990,-0.00024857,-0.057
 34431,-0.04777064,0.00488420,-0.00397348,-0.00216645,0.00307258,-0.012
 28307,0.02702612,-0.01040927,0.48780134,0.00138035,-0.00150540,-0.0063
 8633,-0.00000424,-0.00026653,0.00133456,0.00007689,0.00031071,-0.00044
 209,0.00006466,-0.00031648,-0.00025172,-0.00090852,-0.00037564,0.00164
 865,0.00056100,0.00137021,-0.00074177,0.00025457,-0.00044841,-0.000052
 96,-0.00033063,-0.00064973,0.00045748,0.00012266,0.00004884,-0.0000341
 6,0.00000490,0.00001225,-0.00015484,-0.04791066,-0.01589670,0.00254942
 ,-0.00402364,-0.00285077,0.00123900,0.02986482,-0.03212852,-0.00263432
 ,-0.14853402,0.60206962,-0.00180427,-0.00060681,-0.00233151,0.00106584
 ,0.00062945,0.00013878,-0.00024875,-0.00040951,-0.00000529,-0.00036781
 ,-0.00051330,0.00044994,0.00012403,0.00002278,0.00037844,-0.00004496,0
 .00010650,-0.00007369,-0.00001136,-0.00007690,-0.00007817,0.00006162,-
 0.00002872,0.00007619,-0.00001339,-0.00001778,-0.00004115,-0.00007343,
 -0.00001824,-0.00002591,0.00054713,-0.00008890,0.01423286,0.00341062,0
 .00221753,-0.00024370,0.00380233,0.00556150,-0.02716223,-0.11679693,-0
 .13831313,0.17228841,-0.00047213,-0.00034395,0.00096389,-0.00001855,0.
 00019153,-0.00038163,0.00003663,-0.00011327,0.00012729,0.00003146,-0.0
 0000922,0.00009793,0.00027502,0.00024758,-0.00037040,-0.00017816,-0.00
 046088,0.00024865,-0.00008506,0.00006579,0.00002595,0.00009205,0.00023
 873,-0.00014834,-0.00002961,-0.00002953,0.00000889,0.00000817,-0.00002
 037,0.00004941,0.00048816,-0.00186712,-0.00180824,-0.00078440,-0.00040
 140,0.00024063,-0.00873344,0.01026069,0.00613449,-0.35464296,0.1853764
 3,0.09072932,0.36264010,-0.00011689,0.00038030,-0.00072047,0.00042844,
 -0.00011903,-0.00014760,-0.00021912,-0.00011149,0.00028022,-0.00008602
 ,0.00007475,0.00012948,-0.00006741,-0.00011337,0.00014379,0.00004006,0
 .00019549,-0.00008443,0.00003231,0.00002300,-0.00000126,0.00000976,-0.
 00012615,0.00003703,-0.00001062,0.00002806,0.00000804,-0.00002593,0.00
 002679,-0.00000321,-0.00533314,-0.00752461,0.00004970,-0.00060087,0.00
 028320,0.00012326,-0.00040287,0.01661405,0.00199766,0.15006515,-0.1538
 6678,-0.02781233,-0.18826648,0.16415075,0.00052749,-0.00045134,0.00088
 647,-0.00074028,-0.00025210,0.00006464,0.00026798,0.00032052,-0.000100
 06,0.00028820,0.00017720,-0.00027367,-0.00005526,0.00008854,-0.0001459
 8,0.00003354,-0.00007021,0.00004720,-0.00000368,0.00000615,0.00004223,
 -0.00004861,0.00002830,-0.00004346,0.00001414,0.00000542,0.00002181,0.
 00004923,0.00000220,0.00001275,0.00001412,-0.00056363,-0.00049532,-0.0
 0069893,0.00018888,0.00027081,-0.00266917,-0.00048602,0.00161577,0.124
 11289,-0.05603300,-0.05357022,-0.10379354,0.03920873,0.04368334,-0.000
 17125,-0.00097704,0.00017330,-0.00015164,0.00006716,-0.00003945,0.0000
 3915,0.00001741,-0.00002762,0.00005125,-0.00000844,-0.00000494,0.00009
 816,0.00021478,-0.00004943,-0.00007808,-0.00022938,0.00012140,-0.00004
 165,-0.00004712,0.00003107,0.00002956,0.00012754,-0.00006855,-0.000005
 21,-0.00002011,0.00000109,0.00001402,-0.00001639,0.00002250,-0.0087737
 6,-0.00201921,-0.00135847,-0.00121148,-0.00164386,-0.00013217,0.016170
 15,-0.00798114,0.00815256,-0.06287241,-0.01599457,0.01962000,0.0013727
 3,0.04455362,-0.01729813,0.05553045,-0.00072511,0.00006469,0.00108105,
 0.00012443,0.00009922,-0.00032546,-0.00005900,-0.00009955,0.00013110,-
 0.00006568,0.00003810,0.00012460,0.00026731,0.00006378,-0.00033891,-0.
 00013698,-0.00028885,0.00017265,-0.00005243,0.00013134,0.00000817,0.00
 009376,0.00012513,-0.00011007,-0.00003705,-0.00000125,0.00001243,-0.00
 001309,0.00000753,0.00003972,0.00180736,0.00221937,-0.00172290,-0.0007
 4879,-0.00064415,0.00017951,-0.00143488,-0.00669595,0.00564756,0.02189
 194,-0.39550666,0.15934788,-0.00486853,-0.01991495,0.01783034,-0.01604
 325,0.42040220,0.00017507,0.00045697,0.00043188,-0.00007912,-0.0001578
 1,-0.00012440,0.00000929,0.00004962,0.00006468,0.00004658,0.00017243,-
 0.00003820,-0.00011270,-0.00015110,-0.00001182,0.00007098,0.00014995,-
 0.00005239,0.00005810,0.00004360,0.00003686,-0.00004328,-0.00009454,0.
 00001069,0.00001192,0.00002317,0.00002273,0.00001983,0.00002301,0.0000
 0176,-0.00191082,-0.00098105,-0.00002687,-0.00056120,-0.00040777,0.000
 21514,0.00063754,-0.00165541,0.00118648,0.00294528,0.19781522,-0.10403
 276,0.00787570,-0.01320860,0.00798368,-0.00914317,-0.18207768,0.094332
 55\\-0.00989574,0.00884287,-0.01229353,-0.00265930,-0.00562720,0.00602
 261,0.00107940,0.01027632,0.00686811,0.00342951,-0.00778978,-0.0088226
 9,0.01202571,0.00629216,0.00759966,-0.01149067,-0.00121462,-0.00181599
 ,0.00449800,-0.00882292,-0.00540763,0.01478611,-0.00959685,-0.00488591
 ,0.00150785,0.00831467,0.00831714,-0.00969571,0.00299175,-0.00679306,0
 .00124598,-0.01552787,0.00510642,-0.00041212,0.00695271,0.00908804,-0.
 00025059,0.00839780,-0.00798168,0.00005121,0.00000610,0.01751997,-0.00
 674420,0.00671347,-0.00727928,0.00252457,-0.01020862,-0.00524221\\\@


 IT IS BY EATING THE LIGHT OF A STAR THAT WE EXIST, 
 IN THE FINAL ANALYSIS, 
 JUST AS IT IS BY PERCEIVING THE LIGHT OF STARS
 THAT WE DEFINE THE WORLD AROUND US.

                                    -- GILBERT GROSVENOR
 Job cpu time:       0 days  0 hours 28 minutes  0.4 seconds.
 Elapsed time:       0 days  0 hours  1 minutes  0.8 seconds.
 File lengths (MBytes):  RWF=   1771 Int=      0 D2E=      0 Chk=      3 Scr=      1
 Normal termination of Gaussian 16 at Wed May 11 21:31:45 2022.
