 Entering Gaussian System, Link 0=g16
 Initial command:
 /cm/shared/apps/gaussian/intel/EM64T/SSE4_2-enabled/binary//g16/l1.exe "/scratch/florez/25750/Gau-1745.inp" -scrdir="/scratch/florez/25750/"
 Entering Link 1 = /cm/shared/apps/gaussian/intel/EM64T/SSE4_2-enabled/binary//g16/l1.exe PID=      1748.
  
 Copyright (c) 1988,1990,1992,1993,1995,1998,2003,2009,2016,
            Gaussian, Inc.  All Rights Reserved.
  
 This is part of the Gaussian(R) 16 program.  It is based on
 the Gaussian(R) 09 system (copyright 2009, Gaussian, Inc.),
 the Gaussian(R) 03 system (copyright 2003, Gaussian, Inc.),
 the Gaussian(R) 98 system (copyright 1998, Gaussian, Inc.),
 the Gaussian(R) 94 system (copyright 1995, Gaussian, Inc.),
 the Gaussian 92(TM) system (copyright 1992, Gaussian, Inc.),
 the Gaussian 90(TM) system (copyright 1990, Gaussian, Inc.),
 the Gaussian 88(TM) system (copyright 1988, Gaussian, Inc.),
 the Gaussian 86(TM) system (copyright 1986, Carnegie Mellon
 University), and the Gaussian 82(TM) system (copyright 1983,
 Carnegie Mellon University). Gaussian is a federally registered
 trademark of Gaussian, Inc.
  
 This software contains proprietary and confidential information,
 including trade secrets, belonging to Gaussian, Inc.
  
 This software is provided under written license and may be
 used, copied, transmitted, or stored only in accord with that
 written license.
  
 The following legend is applicable only to US Government
 contracts under FAR:
  
                    RESTRICTED RIGHTS LEGEND
  
 Use, reproduction and disclosure by the US Government is
 subject to restrictions as set forth in subparagraphs (a)
 and (c) of the Commercial Computer Software - Restricted
 Rights clause in FAR 52.227-19.
  
 Gaussian, Inc.
 340 Quinnipiac St., Bldg. 40, Wallingford CT 06492
  
  
 ---------------------------------------------------------------
 Warning -- This program may not be used in any manner that
 competes with the business of Gaussian, Inc. or will provide
 assistance to any competitor of Gaussian, Inc.  The licensee
 of this program is prohibited from giving any competitor of
 Gaussian, Inc. access to this program.  By using this program,
 the user acknowledges that Gaussian, Inc. is engaged in the
 business of creating and licensing software in the field of
 computational chemistry and represents and warrants to the
 licensee that it is not a competitor of Gaussian, Inc. and that
 it will not use this program in any manner prohibited above.
 ---------------------------------------------------------------
  

 Cite this work as:
 Gaussian 16, Revision A.03,
 M. J. Frisch, G. W. Trucks, H. B. Schlegel, G. E. Scuseria, 
 M. A. Robb, J. R. Cheeseman, G. Scalmani, V. Barone, 
 G. A. Petersson, H. Nakatsuji, X. Li, M. Caricato, A. V. Marenich, 
 J. Bloino, B. G. Janesko, R. Gomperts, B. Mennucci, H. P. Hratchian, 
 J. V. Ortiz, A. F. Izmaylov, J. L. Sonnenberg, D. Williams-Young, 
 F. Ding, F. Lipparini, F. Egidi, J. Goings, B. Peng, A. Petrone, 
 T. Henderson, D. Ranasinghe, V. G. Zakrzewski, J. Gao, N. Rega, 
 G. Zheng, W. Liang, M. Hada, M. Ehara, K. Toyota, R. Fukuda, 
 J. Hasegawa, M. Ishida, T. Nakajima, Y. Honda, O. Kitao, H. Nakai, 
 T. Vreven, K. Throssell, J. A. Montgomery, Jr., J. E. Peralta, 
 F. Ogliaro, M. J. Bearpark, J. J. Heyd, E. N. Brothers, K. N. Kudin, 
 V. N. Staroverov, T. A. Keith, R. Kobayashi, J. Normand, 
 K. Raghavachari, A. P. Rendell, J. C. Burant, S. S. Iyengar, 
 J. Tomasi, M. Cossi, J. M. Millam, M. Klene, C. Adamo, R. Cammi, 
 J. W. Ochterski, R. L. Martin, K. Morokuma, O. Farkas, 
 J. B. Foresman, and D. J. Fox, Gaussian, Inc., Wallingford CT, 2016.
 
 ******************************************
 Gaussian 16:  ES64L-G16RevA.03 25-Dec-2016
                11-May-2022 
 ******************************************
 %chk=w5s6.chk
 %nproc=28
 Will use up to   28 processors via shared memory.
 %mem=500gb
 ------------------------
 #p MP2(full) SDDAll freq
 ------------------------
 1/10=4,30=1,38=1/1,3;
 2/12=2,17=6,18=5,40=1/2;
 3/5=17,6=6,11=9,25=1,30=1,71=2,140=1/1,2,3;
 4//1;
 5/5=2,38=5,98=1/2;
 8/6=3,8=1,10=90,19=11/1;
 9/15=3,16=-3/6;
 11/6=1,8=1,15=11,17=11,24=-1,27=1,28=-2,29=300,32=6,42=3/1,2,10;
 10/6=2,21=1/2;
 8/6=4,8=1,10=90,19=11/11,4;
 10/5=1,20=4/2;
 11/12=2,14=11,16=1,28=-2,42=3/2,10,12;
 6/7=2,8=2,9=2,10=2/1;
 7/8=1,10=1,12=2,25=1,44=2/1,2,3,16;
 1/10=4,30=1/3;
 99//99;
 Leave Link    1 at Wed May 11 21:31:45 2022, MaxMem= 67108864000 cpu:               1.0 elap:               0.0
 (Enter /cm/shared/apps/gaussian/intel/EM64T/SSE4_2-enabled/binary//g16/l101.exe)
 ----------------------------------------------------------------------
 file 'w5s6.log' Now we use Def2-QZVPPD, but it was opt at: ---' #p ZOR
 A-SR+SO PBE QZ4P'---
 ----------------------------------------------------------------------
 Symbolic Z-matrix:
 Charge =  2 Multiplicity = 1
 Hg(Fragment=1)        1.82876  -1.37043  -0.71718 
 O(Fragment=2)        -2.16521  -0.47491  -1.10455 
 H(Fragment=2)        -2.55313  -0.72339  -1.96299 
 H(Fragment=2)        -2.93631  -0.32028  -0.30037 
 O(Fragment=2)        -3.77315  -0.05446   0.68409 
 H(Fragment=2)        -4.6011   -0.56211   0.75915 
 H(Fragment=2)        -3.99242   0.88266   0.83811 
 O(Fragment=2)         0.11726  -4.4226   -0.01726 
 H(Fragment=2)        -0.12047  -4.77097   0.85877 
 H(Fragment=2)        -0.09268  -5.13213  -0.64821 
 O(Fragment=2)        -0.04796  -1.90565  -0.62261 
 H(Fragment=2)        -0.0623   -2.90204  -0.38403 
 H(Fragment=2)        -1.36177  -1.06967  -0.88781 
 O(Fragment=2)         3.80008  -0.65195  -0.85105 
 H(Fragment=2)         4.36419  -0.98424  -1.57964 
 H(Fragment=2)         4.34112  -0.6339   -0.03487 
 
 ITRead=  0  0  0  0  0  0  0  0  0  0  0  0  0  0  0  0
 MicOpt= -1 -1 -1 -1 -1 -1 -1 -1 -1 -1 -1 -1 -1 -1 -1 -1
 NAtoms=     16 NQM=       16 NQMF=       0 NMMI=      0 NMMIF=      0
                NMic=       0 NMicF=      0.
                    Isotopes and Nuclear Properties:
 (Nuclear quadrupole moments (NQMom) in fm**2, nuclear magnetic moments (NMagM)
  in nuclear magnetons)

  Atom         1           2           3           4           5           6           7           8           9          10
 IAtWgt=         202          16           1           1          16           1           1          16           1           1
 AtmWgt= 201.9706000  15.9949146   1.0078250   1.0078250  15.9949146   1.0078250   1.0078250  15.9949146   1.0078250   1.0078250
 NucSpn=           0           0           1           1           0           1           1           0           1           1
 AtZEff=  -0.0000000  -0.0000000  -0.0000000  -0.0000000  -0.0000000  -0.0000000  -0.0000000  -0.0000000  -0.0000000  -0.0000000
 NQMom=    0.0000000   0.0000000   0.0000000   0.0000000   0.0000000   0.0000000   0.0000000   0.0000000   0.0000000   0.0000000
 NMagM=    0.0000000   0.0000000   2.7928460   2.7928460   0.0000000   2.7928460   2.7928460   0.0000000   2.7928460   2.7928460
 AtZNuc=  80.0000000   8.0000000   1.0000000   1.0000000   8.0000000   1.0000000   1.0000000   8.0000000   1.0000000   1.0000000

  Atom        11          12          13          14          15          16
 IAtWgt=          16           1           1          16           1           1
 AtmWgt=  15.9949146   1.0078250   1.0078250  15.9949146   1.0078250   1.0078250
 NucSpn=           0           1           1           0           1           1
 AtZEff=  -0.0000000  -0.0000000  -0.0000000  -0.0000000  -0.0000000  -0.0000000
 NQMom=    0.0000000   0.0000000   0.0000000   0.0000000   0.0000000   0.0000000
 NMagM=    0.0000000   2.7928460   2.7928460   0.0000000   2.7928460   2.7928460
 AtZNuc=   8.0000000   1.0000000   1.0000000   8.0000000   1.0000000   1.0000000
 Leave Link  101 at Wed May 11 21:31:45 2022, MaxMem= 67108864000 cpu:               2.8 elap:               0.1
 (Enter /cm/shared/apps/gaussian/intel/EM64T/SSE4_2-enabled/binary//g16/l103.exe)

 GradGradGradGradGradGradGradGradGradGradGradGradGradGradGradGradGradGrad
 Berny optimization.
 Initialization pass.
 Trust Radius=3.00D-01 FncErr=1.00D-07 GrdErr=1.00D-07 EigMax=2.50D+02 EigMin=1.00D-04
 Number of steps in this run=      2 maximum allowed number of steps=      2.
 GradGradGradGradGradGradGradGradGradGradGradGradGradGradGradGradGradGrad

 Leave Link  103 at Wed May 11 21:31:45 2022, MaxMem= 67108864000 cpu:               0.6 elap:               0.0
 (Enter /cm/shared/apps/gaussian/intel/EM64T/SSE4_2-enabled/binary//g16/l202.exe)
                          Input orientation:                          
 ---------------------------------------------------------------------
 Center     Atomic      Atomic             Coordinates (Angstroms)
 Number     Number       Type             X           Y           Z
 ---------------------------------------------------------------------
      1         80           0        1.828764   -1.370428   -0.717176
      2          8           0       -2.165215   -0.474913   -1.104553
      3          1           0       -2.553126   -0.723386   -1.962990
      4          1           0       -2.936308   -0.320280   -0.300366
      5          8           0       -3.773153   -0.054456    0.684090
      6          1           0       -4.601104   -0.562110    0.759149
      7          1           0       -3.992419    0.882659    0.838105
      8          8           0        0.117257   -4.422599   -0.017259
      9          1           0       -0.120466   -4.770968    0.858774
     10          1           0       -0.092684   -5.132132   -0.648212
     11          8           0       -0.047963   -1.905648   -0.622612
     12          1           0       -0.062303   -2.902039   -0.384029
     13          1           0       -1.361770   -1.069669   -0.887811
     14          8           0        3.800076   -0.651952   -0.851052
     15          1           0        4.364187   -0.984243   -1.579637
     16          1           0        4.341116   -0.633895   -0.034868
 ---------------------------------------------------------------------
                    Distance matrix (angstroms):
                    1          2          3          4          5
     1  Hg   0.000000
     2  O    4.111432   0.000000
     3  H    4.601269   0.974232   0.000000
     4  H    4.897188   1.124817   1.753180   0.000000
     5  O    5.922567   2.441617   2.990479   1.319138   0.000000
     6  H    6.646512   3.068313   3.410317   1.988115   0.974089
     7  H    6.432843   2.992590   3.535121   1.964319   0.974671
     8  O    3.568597   4.687869   4.959939   5.121858   5.891337
     9  H    4.224546   5.147013   5.501191   5.392698   5.968092
    10  H    4.224587   5.117941   5.217227   5.600099   6.411215
    11  O    1.953844   2.600390   3.077369   3.310554   4.360209
    12  H    2.456207   3.291251   3.666585   3.864244   4.797918
    13  H    3.209218   1.022857   1.641722   1.840067   3.052261
    14  O    2.102428   5.973299   6.450169   6.766988   7.750320
    15  H    2.705799   6.566446   6.932837   7.441412   8.497368
    16  H    2.705538   6.595593   7.159346   7.289015   8.166640
                    6          7          8          9         10
     6  H    0.000000
     7  H    1.569742   0.000000
     8  O    6.145658   6.765120   0.000000
     9  H    6.148213   6.852441   0.972269   0.000000
    10  H    6.572033   7.320846   0.972427   1.549909   0.000000
    11  O    4.944234   5.046492   2.593992   3.226425   3.226895
    12  H    5.232861   5.591365   1.574441   2.245181   2.245892
    13  H    3.669248   3.702794   3.766633   4.276799   4.262815
    14  O    8.554569   8.119807   5.336304   5.938051   5.938580
    15  H    9.274943   8.897396   5.683285   6.355883   6.159240
    16  H    8.977690   8.515270   5.674114   6.149771   6.345779
                   11         12         13         14         15
    11  O    0.000000
    12  H    1.024657   0.000000
    13  H    1.579646   2.302171   0.000000
    14  O    4.053559   4.494327   5.178851   0.000000
    15  H    4.607814   4.970034   5.768232   0.979528   0.000000
    16  H    4.607257   4.965530   5.782761   0.979391   1.584168
                   16
    16  H    0.000000
 Stoichiometry    H10HgO5(2+)
 Framework group  C1[X(H10HgO5)]
 Deg. of freedom    42
 Full point group                 C1      NOp   1
 Largest Abelian subgroup         C1      NOp   1
 Largest concise Abelian subgroup C1      NOp   1
                         Standard orientation:                         
 ---------------------------------------------------------------------
 Center     Atomic      Atomic             Coordinates (Angstroms)
 Number     Number       Type             X           Y           Z
 ---------------------------------------------------------------------
      1         80           0        0.883710   -0.150977   -0.002553
      2          8           0       -3.094077   -0.740275    0.854075
      3          1           0       -3.337741   -0.564234    1.780771
      4          1           0       -3.976462   -0.730508    0.156569
      5          8           0       -4.958826   -0.803437   -0.720796
      6          1           0       -5.733506   -0.221248   -0.621923
      7          1           0       -5.290640   -1.692987   -0.941211
      8          8           0       -0.586182    3.098719   -0.119938
      9          1           0       -0.901051    3.568812   -0.910620
     10          1           0       -0.637601    3.742793    0.606793
     11          8           0       -0.924829    0.550858    0.230086
     12          1           0       -0.869256    1.566205    0.103970
     13          1           0       -2.270112   -0.194999    0.589517
     14          8           0        2.772083   -1.046901   -0.229643
     15          1           0        3.458443   -0.854112    0.442085
     16          1           0        3.195739   -1.013266   -1.112021
 ---------------------------------------------------------------------
 Rotational constants (GHZ):           1.9163645           0.5135948           0.4250820
 Leave Link  202 at Wed May 11 21:31:45 2022, MaxMem= 67108864000 cpu:               0.3 elap:               0.0
 (Enter /cm/shared/apps/gaussian/intel/EM64T/SSE4_2-enabled/binary//g16/l301.exe)
 Standard basis: SDDAll (6D, 10F)
 Ernie: Thresh=  0.10000D-02 Tol=  0.10000D-05 Strict=F.
 There are   114 symmetry adapted cartesian basis functions of A   symmetry.
 There are   114 symmetry adapted basis functions of A   symmetry.
   114 basis functions,   200 primitive gaussians,   114 cartesian basis functions
    29 alpha electrons       29 beta electrons
       nuclear repulsion energy       252.3051257187 Hartrees.
 IExCor=    0 DFT=F Ex=HF Corr=None ExCW=0 ScaHFX=  1.000000
 ScaDFX=  1.000000  1.000000  1.000000  1.000000 ScalE2=  1.000000  1.000000
 IRadAn=      5 IRanWt=     -1 IRanGd=            0 ICorTp=0 IEmpDi=  4
 NAtoms=   16 NActive=   16 NUniq=   16 SFac= 1.00D+00 NAtFMM=   60 NAOKFM=F Big=F
 Integral buffers will be    131072 words long.
 Raffenetti 1 integral format.
 Two-electron integral symmetry is turned on.
 Leave Link  301 at Wed May 11 21:31:45 2022, MaxMem= 67108864000 cpu:               1.4 elap:               0.1
 (Enter /cm/shared/apps/gaussian/intel/EM64T/SSE4_2-enabled/binary//g16/l302.exe)
 NPDir=0 NMtPBC=     1 NCelOv=     1 NCel=       1 NClECP=     1 NCelD=      1
         NCelK=      1 NCelE2=     1 NClLst=     1 CellRange=     0.0.
 One-electron integrals computed using PRISM.
 One-electron integral symmetry used in STVInt
   1 Symmetry operations used in ECPInt.
 ECPInt:  NShTT=    1770 NPrTT=    5742 LenC2=    1723 LenP2D=    4364.
 LDataN:  DoStor=T MaxTD1= 7 Len=  274
 NBasis=   114 RedAO= T EigKep=  3.86D-04  NBF=   114
 NBsUse=   114 1.00D-06 EigRej= -1.00D+00 NBFU=   114
 Leave Link  302 at Wed May 11 21:31:46 2022, MaxMem= 67108864000 cpu:               6.6 elap:               0.3
 (Enter /cm/shared/apps/gaussian/intel/EM64T/SSE4_2-enabled/binary//g16/l303.exe)
 DipDrv:  MaxL=1.
 Leave Link  303 at Wed May 11 21:31:46 2022, MaxMem= 67108864000 cpu:               1.1 elap:               0.1
 (Enter /cm/shared/apps/gaussian/intel/EM64T/SSE4_2-enabled/binary//g16/l401.exe)
 ExpMin= 2.00D-02 ExpMax= 4.71D+01 ExpMxC= 4.71D+01 IAcc=3 IRadAn=         5 AccDes= 0.00D+00
 Harris functional with IExCor=  205 and IRadAn=       5 diagonalized for initial guess.
 HarFok:  IExCor=  205 AccDes= 0.00D+00 IRadAn=         5 IDoV= 1 UseB2=F ITyADJ=14
 ICtDFT=  3500011 ScaDFX=  1.000000  1.000000  1.000000  1.000000
 Defaulting to unpruned grid for atomic number  80.
 FoFCou: FMM=F IPFlag=           0 FMFlag=      100000 FMFlg1=           0
         NFxFlg=           0 DoJE=T BraDBF=F KetDBF=T FulRan=T
         wScrn=  0.000000 ICntrl=       500 IOpCl=  0 I1Cent=   200000004 NGrid=           0
         NMat0=    1 NMatS0=      1 NMatT0=    0 NMatD0=    1 NMtDS0=    0 NMtDT0=    0
 Petite list used in FoFCou.
 Harris En= -239.824899062608    
 JPrj=0 DoOrth=F DoCkMO=F.
 Leave Link  401 at Wed May 11 21:31:46 2022, MaxMem= 67108864000 cpu:               8.4 elap:               0.3
 (Enter /cm/shared/apps/gaussian/intel/EM64T/SSE4_2-enabled/binary//g16/l502.exe)
 Integral symmetry usage will be decided dynamically.
 Closed shell SCF:
 Using DIIS extrapolation, IDIIS=  1040.
 NGot= 67108864000 LenX= 67108833323 LenY= 67108819886
 Requested convergence on RMS density matrix=1.00D-08 within 128 cycles.
 Requested convergence on MAX density matrix=1.00D-06.
 Requested convergence on             energy=1.00D-06.
 No special actions if energy rises.
 Fock matrices will be formed incrementally for  20 cycles.

 Cycle   1  Pass 0  IDiag  1:
 FoFJK:  IHMeth= 1 ICntrl=       0 DoSepK=F KAlg= 0 I1Cent=           0 FoldK=F
 IRaf= 940000000 NMat=       1 IRICut=       1 DoRegI=T DoRafI=F ISym2E= 0 IDoP0=0 IntGTp=1.
 FoFCou: FMM=F IPFlag=           0 FMFlag=      100000 FMFlg1=           0
         NFxFlg=           0 DoJE=F BraDBF=F KetDBF=F FulRan=T
         wScrn=  0.000000 ICntrl=         0 IOpCl=  0 I1Cent=           0 NGrid=           0
         NMat0=    1 NMatS0=      1 NMatT0=    0 NMatD0=    1 NMtDS0=    0 NMtDT0=    0
 Symmetry not used in FoFCou.
 E= -236.019358342505    
 DIIS: error= 4.15D-02 at cycle   1 NSaved=   1.
 NSaved= 1 IEnMin= 1 EnMin= -236.019358342505     IErMin= 1 ErrMin= 4.15D-02
 ErrMax= 4.15D-02  0.00D+00 EMaxC= 1.00D-01 BMatC= 5.78D-01 BMatP= 5.78D-01
 IDIUse=3 WtCom= 5.85D-01 WtEn= 4.15D-01
 Coeff-Com:  0.100D+01
 Coeff-En:   0.100D+01
 Coeff:      0.100D+01
 Gap=     0.667 Goal=   None    Shift=    0.000
 GapD=    0.667 DampG=2.000 DampE=0.250 DampFc=0.5000 IDamp=-1.
 Damping current iteration by 5.00D-01
 RMSDP=9.12D-03 MaxDP=2.40D-01              OVMax= 2.36D-01

 Cycle   2  Pass 0  IDiag  1:
 RMSU=  4.50D-03    CP:  1.02D+00
 E= -236.269122436324     Delta-E=       -0.249764093818 Rises=F Damp=T
 DIIS: error= 1.00D-02 at cycle   2 NSaved=   2.
 NSaved= 2 IEnMin= 2 EnMin= -236.269122436324     IErMin= 2 ErrMin= 1.00D-02
 ErrMax= 1.00D-02  0.00D+00 EMaxC= 1.00D-01 BMatC= 3.53D-02 BMatP= 5.78D-01
 IDIUse=3 WtCom= 9.00D-01 WtEn= 1.00D-01
 Coeff-Com: -0.216D+00 0.122D+01
 Coeff-En:   0.000D+00 0.100D+01
 Coeff:     -0.195D+00 0.119D+01
 Gap=     0.515 Goal=   None    Shift=    0.000
 RMSDP=2.76D-03 MaxDP=6.64D-02 DE=-2.50D-01 OVMax= 7.46D-02

 Cycle   3  Pass 0  IDiag  1:
 RMSU=  2.52D-03    CP:  1.01D+00  1.25D+00
 E= -236.482787421620     Delta-E=       -0.213664985296 Rises=F Damp=F
 DIIS: error= 3.99D-03 at cycle   3 NSaved=   3.
 NSaved= 3 IEnMin= 3 EnMin= -236.482787421620     IErMin= 3 ErrMin= 3.99D-03
 ErrMax= 3.99D-03  0.00D+00 EMaxC= 1.00D-01 BMatC= 4.36D-03 BMatP= 3.53D-02
 IDIUse=3 WtCom= 9.60D-01 WtEn= 3.99D-02
 Coeff-Com: -0.606D-02 0.103D+00 0.903D+00
 Coeff-En:   0.000D+00 0.000D+00 0.100D+01
 Coeff:     -0.582D-02 0.989D-01 0.907D+00
 Gap=     0.517 Goal=   None    Shift=    0.000
 RMSDP=9.23D-04 MaxDP=2.77D-02 DE=-2.14D-01 OVMax= 1.50D-02

 Cycle   4  Pass 0  IDiag  1:
 RMSU=  6.49D-04    CP:  1.01D+00  1.19D+00  1.22D+00
 E= -236.486757289502     Delta-E=       -0.003969867882 Rises=F Damp=F
 DIIS: error= 2.46D-03 at cycle   4 NSaved=   4.
 NSaved= 4 IEnMin= 4 EnMin= -236.486757289502     IErMin= 4 ErrMin= 2.46D-03
 ErrMax= 2.46D-03  0.00D+00 EMaxC= 1.00D-01 BMatC= 7.73D-04 BMatP= 4.36D-03
 IDIUse=3 WtCom= 9.75D-01 WtEn= 2.46D-02
 Coeff-Com:  0.379D-01-0.168D+00 0.266D+00 0.864D+00
 Coeff-En:   0.000D+00 0.000D+00 0.000D+00 0.100D+01
 Coeff:      0.370D-01-0.164D+00 0.260D+00 0.867D+00
 Gap=     0.508 Goal=   None    Shift=    0.000
 RMSDP=5.29D-04 MaxDP=1.65D-02 DE=-3.97D-03 OVMax= 1.91D-02

 Cycle   5  Pass 0  IDiag  1:
 RMSU=  2.67D-04    CP:  1.00D+00  1.18D+00  1.39D+00  1.12D+00
 E= -236.488025894383     Delta-E=       -0.001268604881 Rises=F Damp=F
 DIIS: error= 7.21D-04 at cycle   5 NSaved=   5.
 NSaved= 5 IEnMin= 5 EnMin= -236.488025894383     IErMin= 5 ErrMin= 7.21D-04
 ErrMax= 7.21D-04  0.00D+00 EMaxC= 1.00D-01 BMatC= 5.37D-05 BMatP= 7.73D-04
 IDIUse=3 WtCom= 9.93D-01 WtEn= 7.21D-03
 Coeff-Com: -0.101D-01 0.326D-01-0.727D-01-0.692D-01 0.112D+01
 Coeff-En:   0.000D+00 0.000D+00 0.000D+00 0.000D+00 0.100D+01
 Coeff:     -0.100D-01 0.324D-01-0.722D-01-0.687D-01 0.112D+01
 Gap=     0.506 Goal=   None    Shift=    0.000
 RMSDP=1.80D-04 MaxDP=3.93D-03 DE=-1.27D-03 OVMax= 5.48D-03

 Cycle   6  Pass 0  IDiag  1:
 RMSU=  7.16D-05    CP:  1.00D+00  1.18D+00  1.44D+00  1.23D+00  1.37D+00
 E= -236.488183955101     Delta-E=       -0.000158060718 Rises=F Damp=F
 DIIS: error= 2.35D-04 at cycle   6 NSaved=   6.
 NSaved= 6 IEnMin= 6 EnMin= -236.488183955101     IErMin= 6 ErrMin= 2.35D-04
 ErrMax= 2.35D-04  0.00D+00 EMaxC= 1.00D-01 BMatC= 1.58D-05 BMatP= 5.37D-05
 IDIUse=3 WtCom= 9.98D-01 WtEn= 2.35D-03
 Coeff-Com: -0.953D-02 0.376D-01-0.914D-01-0.186D+00 0.321D+00 0.929D+00
 Coeff-En:   0.000D+00 0.000D+00 0.000D+00 0.000D+00 0.000D+00 0.100D+01
 Coeff:     -0.950D-02 0.375D-01-0.912D-01-0.186D+00 0.320D+00 0.929D+00
 Gap=     0.503 Goal=   None    Shift=    0.000
 RMSDP=1.17D-04 MaxDP=2.98D-03 DE=-1.58D-04 OVMax= 3.87D-03

 Cycle   7  Pass 0  IDiag  1:
 RMSU=  2.75D-05    CP:  1.00D+00  1.18D+00  1.47D+00  1.30D+00  1.59D+00
                    CP:  1.35D+00
 E= -236.488222847761     Delta-E=       -0.000038892660 Rises=F Damp=F
 DIIS: error= 6.38D-05 at cycle   7 NSaved=   7.
 NSaved= 7 IEnMin= 7 EnMin= -236.488222847761     IErMin= 7 ErrMin= 6.38D-05
 ErrMax= 6.38D-05  0.00D+00 EMaxC= 1.00D-01 BMatC= 9.49D-07 BMatP= 1.58D-05
 IDIUse=1 WtCom= 1.00D+00 WtEn= 0.00D+00
 Coeff-Com:  0.315D-02-0.894D-02 0.162D-01 0.438D-01-0.142D+00-0.225D+00
 Coeff-Com:  0.131D+01
 Coeff:      0.315D-02-0.894D-02 0.162D-01 0.438D-01-0.142D+00-0.225D+00
 Coeff:      0.131D+01
 Gap=     0.502 Goal=   None    Shift=    0.000
 RMSDP=3.35D-05 MaxDP=7.52D-04 DE=-3.89D-05 OVMax= 1.21D-03

 Cycle   8  Pass 0  IDiag  1:
 RMSU=  7.77D-06    CP:  1.00D+00  1.18D+00  1.47D+00  1.31D+00  1.65D+00
                    CP:  1.54D+00  1.36D+00
 E= -236.488225645731     Delta-E=       -0.000002797970 Rises=F Damp=F
 DIIS: error= 1.48D-05 at cycle   8 NSaved=   8.
 NSaved= 8 IEnMin= 8 EnMin= -236.488225645731     IErMin= 8 ErrMin= 1.48D-05
 ErrMax= 1.48D-05  0.00D+00 EMaxC= 1.00D-01 BMatC= 5.67D-08 BMatP= 9.49D-07
 IDIUse=1 WtCom= 1.00D+00 WtEn= 0.00D+00
 Coeff-Com: -0.104D-03-0.716D-04 0.255D-02 0.223D-02-0.285D-02-0.119D-02
 Coeff-Com: -0.116D+00 0.112D+01
 Coeff:     -0.104D-03-0.716D-04 0.255D-02 0.223D-02-0.285D-02-0.119D-02
 Coeff:     -0.116D+00 0.112D+01
 Gap=     0.502 Goal=   None    Shift=    0.000
 RMSDP=3.94D-06 MaxDP=9.74D-05 DE=-2.80D-06 OVMax= 1.73D-04

 Initial convergence to 1.0D-05 achieved.  Increase integral accuracy.
 Cycle   9  Pass 1  IDiag  1:
 E= -236.488225786899     Delta-E=       -0.000000141167 Rises=F Damp=F
 DIIS: error= 9.08D-06 at cycle   1 NSaved=   1.
 NSaved= 1 IEnMin= 1 EnMin= -236.488225786899     IErMin= 1 ErrMin= 9.08D-06
 ErrMax= 9.08D-06  0.00D+00 EMaxC= 1.00D-01 BMatC= 1.34D-08 BMatP= 1.34D-08
 IDIUse=1 WtCom= 1.00D+00 WtEn= 0.00D+00
 Coeff-Com:  0.100D+01
 Coeff:      0.100D+01
 Gap=     0.502 Goal=   None    Shift=    0.000
 RMSDP=3.94D-06 MaxDP=9.74D-05 DE=-1.41D-07 OVMax= 5.68D-05

 Cycle  10  Pass 1  IDiag  1:
 RMSU=  1.37D-06    CP:  1.00D+00
 E= -236.488225810875     Delta-E=       -0.000000023976 Rises=F Damp=F
 DIIS: error= 4.29D-06 at cycle   2 NSaved=   2.
 NSaved= 2 IEnMin= 2 EnMin= -236.488225810875     IErMin= 2 ErrMin= 4.29D-06
 ErrMax= 4.29D-06  0.00D+00 EMaxC= 1.00D-01 BMatC= 3.97D-09 BMatP= 1.34D-08
 IDIUse=1 WtCom= 1.00D+00 WtEn= 0.00D+00
 Coeff-Com:  0.243D+00 0.757D+00
 Coeff:      0.243D+00 0.757D+00
 Gap=     0.502 Goal=   None    Shift=    0.000
 RMSDP=6.51D-07 MaxDP=1.79D-05 DE=-2.40D-08 OVMax= 3.37D-05

 Cycle  11  Pass 1  IDiag  1:
 RMSU=  5.25D-07    CP:  1.00D+00  1.28D+00
 E= -236.488225817627     Delta-E=       -0.000000006752 Rises=F Damp=F
 DIIS: error= 3.13D-06 at cycle   3 NSaved=   3.
 NSaved= 3 IEnMin= 3 EnMin= -236.488225817627     IErMin= 3 ErrMin= 3.13D-06
 ErrMax= 3.13D-06  0.00D+00 EMaxC= 1.00D-01 BMatC= 9.89D-10 BMatP= 3.97D-09
 IDIUse=1 WtCom= 1.00D+00 WtEn= 0.00D+00
 Coeff-Com: -0.425D+00-0.304D+00 0.173D+01
 Coeff:     -0.425D+00-0.304D+00 0.173D+01
 Gap=     0.502 Goal=   None    Shift=    0.000
 RMSDP=9.97D-07 MaxDP=2.39D-05 DE=-6.75D-09 OVMax= 5.03D-05

 Cycle  12  Pass 1  IDiag  1:
 RMSU=  1.64D-07    CP:  1.00D+00  1.93D+00  1.80D+00
 E= -236.488225821741     Delta-E=       -0.000000004114 Rises=F Damp=F
 DIIS: error= 3.53D-07 at cycle   4 NSaved=   4.
 NSaved= 4 IEnMin= 4 EnMin= -236.488225821741     IErMin= 4 ErrMin= 3.53D-07
 ErrMax= 3.53D-07  0.00D+00 EMaxC= 1.00D-01 BMatC= 4.16D-11 BMatP= 9.89D-10
 IDIUse=1 WtCom= 1.00D+00 WtEn= 0.00D+00
 Coeff-Com: -0.146D+00-0.120D+00 0.574D+00 0.692D+00
 Coeff:     -0.146D+00-0.120D+00 0.574D+00 0.692D+00
 Gap=     0.502 Goal=   None    Shift=    0.000
 RMSDP=8.41D-08 MaxDP=2.58D-06 DE=-4.11D-09 OVMax= 4.55D-06

 Cycle  13  Pass 1  IDiag  1:
 RMSU=  5.14D-08    CP:  1.00D+00  1.97D+00  1.87D+00  1.09D+00
 E= -236.488225821801     Delta-E=       -0.000000000060 Rises=F Damp=F
 DIIS: error= 1.30D-07 at cycle   5 NSaved=   5.
 NSaved= 5 IEnMin= 5 EnMin= -236.488225821801     IErMin= 5 ErrMin= 1.30D-07
 ErrMax= 1.30D-07  0.00D+00 EMaxC= 1.00D-01 BMatC= 4.55D-12 BMatP= 4.16D-11
 IDIUse=1 WtCom= 1.00D+00 WtEn= 0.00D+00
 Coeff-Com:  0.917D-01 0.663D-01-0.378D+00-0.640D-01 0.128D+01
 Coeff:      0.917D-01 0.663D-01-0.378D+00-0.640D-01 0.128D+01
 Gap=     0.502 Goal=   None    Shift=    0.000
 RMSDP=6.02D-08 MaxDP=1.86D-06 DE=-6.03D-11 OVMax= 2.46D-06

 Cycle  14  Pass 1  IDiag  1:
 RMSU=  1.73D-08    CP:  1.00D+00  1.99D+00  1.91D+00  1.33D+00  1.42D+00
 E= -236.488225821812     Delta-E=       -0.000000000011 Rises=F Damp=F
 DIIS: error= 4.15D-08 at cycle   6 NSaved=   6.
 NSaved= 6 IEnMin= 6 EnMin= -236.488225821812     IErMin= 6 ErrMin= 4.15D-08
 ErrMax= 4.15D-08  0.00D+00 EMaxC= 1.00D-01 BMatC= 2.87D-13 BMatP= 4.55D-12
 IDIUse=1 WtCom= 1.00D+00 WtEn= 0.00D+00
 Coeff-Com:  0.257D-01 0.202D-01-0.104D+00-0.596D-01 0.213D+00 0.905D+00
 Coeff:      0.257D-01 0.202D-01-0.104D+00-0.596D-01 0.213D+00 0.905D+00
 Gap=     0.502 Goal=   None    Shift=    0.000
 RMSDP=1.22D-08 MaxDP=2.67D-07 DE=-1.06D-11 OVMax= 5.03D-07

 Cycle  15  Pass 1  IDiag  1:
 RMSU=  4.69D-09    CP:  1.00D+00  1.99D+00  1.92D+00  1.36D+00  1.54D+00
                    CP:  1.35D+00
 E= -236.488225821805     Delta-E=        0.000000000006 Rises=F Damp=F
 DIIS: error= 1.96D-08 at cycle   7 NSaved=   7.
 NSaved= 7 IEnMin= 6 EnMin= -236.488225821812     IErMin= 7 ErrMin= 1.96D-08
 ErrMax= 1.96D-08  0.00D+00 EMaxC= 1.00D-01 BMatC= 5.10D-14 BMatP= 2.87D-13
 IDIUse=1 WtCom= 1.00D+00 WtEn= 0.00D+00
 Coeff-Com: -0.180D-01-0.127D-01 0.732D-01 0.101D-01-0.246D+00 0.853D-01
 Coeff-Com:  0.111D+01
 Coeff:     -0.180D-01-0.127D-01 0.732D-01 0.101D-01-0.246D+00 0.853D-01
 Coeff:      0.111D+01
 Gap=     0.502 Goal=   None    Shift=    0.000
 RMSDP=5.89D-09 MaxDP=1.69D-07 DE= 6.37D-12 OVMax= 1.88D-07

 SCF Done:  E(RHF) =  -236.488225822     A.U. after   15 cycles
            NFock= 15  Conv=0.59D-08     -V/T= 2.9974
 KE= 1.183968655946D+02 PE=-1.010285570540D+03 EE= 4.030953534044D+02
 Leave Link  502 at Wed May 11 21:31:48 2022, MaxMem= 67108864000 cpu:              56.3 elap:               2.0
 (Enter /cm/shared/apps/gaussian/intel/EM64T/SSE4_2-enabled/binary//g16/l801.exe)
 Range of M.O.s used for correlation:     1   114
 NBasis=   114 NAE=    29 NBE=    29 NFC=     0 NFV=     0
 NROrb=    114 NOA=    29 NOB=    29 NVA=    85 NVB=    85

 **** Warning!!: The largest alpha MO coefficient is  0.28645925D+02

 Leave Link  801 at Wed May 11 21:31:48 2022, MaxMem= 67108864000 cpu:               0.9 elap:               0.1
 (Enter /cm/shared/apps/gaussian/intel/EM64T/SSE4_2-enabled/binary//g16/l906.exe)
 FulOut=F Deriv=T AODrv=T NAtomX=    16
   MMem=           0  MDisk=          29 MDiskD=          29
  W3Min=      376884 MinDsk=     1164521 NBas6D=         114
 NBas2D=        6660    NTT=        6555    LW2=     3308096
    MDV= 67108676583 MDiskM=     8175764 NBas2p=        6350
 Disk-based method using ON**2 memory for 29 occupieds at a time.
 Permanent disk used for amplitudes=     7525645 words.
 Estimated scratch disk usage=    80558300 words.
 IMap=   1   2   3   4   5   6   7   8   9  10  11  12  13  14  15  16  17  18  19  20
 IMap=  21  22  23  24  25  26  27  28  29
 Actual    scratch disk usage=    73518300 words.
 JobTyp=1 Pass  1:  I=   1 to  29 NPSUse= 28 ParTrn=T ParDer=T DoDerP=T.
 (rs|ai) integrals will be sorted in core.
 Spin components of T(2) and E(2):
     alpha-alpha T2 =       0.3158148320D-01 E2=     -0.1006848413D+00
     alpha-beta  T2 =       0.1837895175D+00 E2=     -0.5925857195D+00
     beta-beta   T2 =       0.3158148320D-01 E2=     -0.1006848413D+00
 The integrals were generated   1 times.
 ANorm=    0.1116670266D+01
 E2 =    -0.7939554021D+00 EUMP2 =    -0.23728218122388D+03
 Leave Link  906 at Wed May 11 21:31:58 2022, MaxMem= 67108864000 cpu:             280.0 elap:              10.0
 (Enter /cm/shared/apps/gaussian/intel/EM64T/SSE4_2-enabled/binary//g16/l1101.exe)
 Using compressed Sx but separate Hx and Fx, NAtomX=    16.
 Will process     17 centers per pass.
   1 Symmetry operations used in ECPInt.
 ECPInt:  NShTT=    1770 NPrTT=    5742 LenC2=    1723 LenP2D=    4364.
 LDataN:  DoStor=T MaxTD1= 8 Len=  415
 Leave Link 1101 at Wed May 11 21:31:59 2022, MaxMem= 67108864000 cpu:              12.3 elap:               0.5
 (Enter /cm/shared/apps/gaussian/intel/EM64T/SSE4_2-enabled/binary//g16/l1102.exe)
 Leave Link 1102 at Wed May 11 21:31:59 2022, MaxMem= 67108864000 cpu:               0.5 elap:               0.0
 (Enter /cm/shared/apps/gaussian/intel/EM64T/SSE4_2-enabled/binary//g16/l1110.exe)
 Forming Gx(P) for the SCF density, NAtomX=    16.
 Integral derivatives from FoFJK, PRISM(SPDF).
 Do as many integral derivatives as possible in FoFJK.
 G2DrvN: MDV=   67108862744.
 G2DrvN: will do    17 centers at a time, making    1 passes.
 Calling FoFCou, ICntrl=  3107 FMM=F I1Cent=   0 AccDes= 0.00D+00.
 FoFJK:  IHMeth= 1 ICntrl=    3107 DoSepK=F KAlg= 0 I1Cent=           0 FoldK=F
 IRaf=         0 NMat=       1 IRICut=       1 DoRegI=T DoRafI=F ISym2E= 0 IDoP0=0 IntGTp=1.
 FoFCou: FMM=F IPFlag=           0 FMFlag=      100000 FMFlg1=           0
         NFxFlg=           0 DoJE=F BraDBF=F KetDBF=F FulRan=T
         wScrn=  0.000000 ICntrl=      3107 IOpCl=  0 I1Cent=           0 NGrid=           0
         NMat0=    1 NMatS0=      1 NMatT0=    0 NMatD0=    1 NMtDS0=    0 NMtDT0=    0
 Symmetry not used in FoFCou.
 End of G2Drv F.D. properties file   721 does not exist.
 End of G2Drv F.D. properties file   722 does not exist.
 End of G2Drv F.D. properties file   788 does not exist.
 Leave Link 1110 at Wed May 11 21:31:59 2022, MaxMem= 67108864000 cpu:               9.7 elap:               0.4
 (Enter /cm/shared/apps/gaussian/intel/EM64T/SSE4_2-enabled/binary//g16/l1002.exe)
 Minotr:  Closed shell wavefunction.
          IDoAtm=1111111111111111
          Direct CPHF calculation.
          Differentiating once with respect to electric field.
                with respect to dipole field.
          Differentiating once with respect to nuclear coordinates.
          Requested convergence is 1.0D-08 RMS, and 1.0D-07 maximum.
          Secondary convergence is 1.0D-12 RMS, and 1.0D-12 maximum.
          NewPWx=T KeepS1=T KeepF1=T KeepIn=T MapXYZ=F SortEE=F KeepMc=T.
 Keep R1 ints in memory in canonical form, NReq=27433984.
 FoFCou: FMM=F IPFlag=           0 FMFlag=           0 FMFlg1=           0
         NFxFlg=           0 DoJE=F BraDBF=F KetDBF=F FulRan=T
         wScrn=  0.000000 ICntrl=       600 IOpCl=  0 I1Cent=           0 NGrid=           0
         NMat0=    1 NMatS0=   6555 NMatT0=    0 NMatD0=    1 NMtDS0=    0 NMtDT0=    0
 Symmetry not used in FoFCou.
 Two-electron integral symmetry not used.
          MDV=   67108864000 using IRadAn=       1.
          Solving linear equations simultaneously, MaxMat=       0.
          There are    51 degrees of freedom in the 1st order CPHF.  IDoFFX=6 NUNeed=    51.
     48 vectors produced by pass  0 Test12= 4.83D-15 1.96D-09 XBig12= 1.26D+01 1.86D+00.
 AX will form    48 AO Fock derivatives at one time.
     48 vectors produced by pass  1 Test12= 4.83D-15 1.96D-09 XBig12= 4.05D-01 1.59D-01.
     48 vectors produced by pass  2 Test12= 4.83D-15 1.96D-09 XBig12= 9.99D-03 2.51D-02.
     48 vectors produced by pass  3 Test12= 4.83D-15 1.96D-09 XBig12= 9.18D-05 2.01D-03.
     48 vectors produced by pass  4 Test12= 4.83D-15 1.96D-09 XBig12= 6.21D-07 1.86D-04.
     48 vectors produced by pass  5 Test12= 4.83D-15 1.96D-09 XBig12= 4.94D-09 1.43D-05.
     27 vectors produced by pass  6 Test12= 4.83D-15 1.96D-09 XBig12= 2.41D-11 5.73D-07.
      3 vectors produced by pass  7 Test12= 4.83D-15 1.96D-09 XBig12= 9.04D-14 3.52D-08.
      1 vectors produced by pass  8 Test12= 4.83D-15 1.96D-09 XBig12= 3.81D-16 2.72D-09.
 InvSVY:  IOpt=1 It=  1 EMax= 4.00D-15
 Solved reduced A of dimension   319 with    51 vectors.
 FullF1:  Do perturbations      1 to      51.
 Saving first derivative matrices.
 End of Minotr F.D. properties file   721 does not exist.
 End of Minotr F.D. properties file   722 does not exist.
 End of Minotr F.D. properties file   788 does not exist.
 Leave Link 1002 at Wed May 11 21:32:00 2022, MaxMem= 67108864000 cpu:              34.7 elap:               1.3
 (Enter /cm/shared/apps/gaussian/intel/EM64T/SSE4_2-enabled/binary//g16/l811.exe)
 MDV= 67108864000.
 Form MO integral derivatives with frozen-active canonical formalism.
 MOERI=1 MOERIx=1 NAtoms=    16 NAtomX=    16.
 Discarding MO integrals.
 MO basis two electron integral derivatives will not be stored on disk.
 IAlg= 3 DoFC=T DoPWx=T Debug=F.
 Reordered first order wavefunction length =     12152450
 In DefCFB: NBatch=  1 ICI= 29 ICA= 85 LFMax= 85
            Large arrays: LIAPS=   128140560 LIARS=    76715730 words.
 In StABat: MaxSiz= 39 MinSiz= 37 NAtomB=  3
 DoIAMN: NPSUse= 28.
 Leave Link  811 at Wed May 11 21:32:25 2022, MaxMem= 67108864000 cpu:             673.4 elap:              24.2
 (Enter /cm/shared/apps/gaussian/intel/EM64T/SSE4_2-enabled/binary//g16/l804.exe)
 Closed-shell transformation, MDV= 67108864000 ITran=4 ISComp=1.
 Semi-Direct transformation.
 ModeAB=           4 MOrb=            29 LenV=   67108408062
 LASXX=     17409106 LTotXX=    17409106 LenRXX=    35346331
 LTotAB=    17937225 MaxLAS=    20586462 LenRXY=           0
 NonZer=    52755437 LenScr=    79902720 LnRSAI=    20586462
 LnScr1=    31634944 LExtra=           0 Total=    167470457
 MaxDsk=          -1 SrtSym=           T ITran=            4
 DoSDTr:  NPSUse= 28
 JobTyp=0 Pass  1:  I=   1 to  29.
 (rs|ai) integrals will be sorted in core.
 Complete sort for first half transformation.
 First half transformation complete.
 Begin second half transformation for I=  10.
 Begin second half transformation for I=  20.
 Complete sort for second half transformation.
 Second half transformation complete.
 SymMOI:  orbitals are not symmetric.
 Spin components of T(2) and E(2):
     alpha-alpha T2 =       0.3158148320D-01 E2=     -0.1006848413D+00
     alpha-beta  T2 =       0.1837895175D+00 E2=     -0.5925857195D+00
     beta-beta   T2 =       0.3158148320D-01 E2=     -0.1006848413D+00
 ANorm=    0.1579210235D+01
 E2 =    -0.7939554021D+00 EUMP2 =    -0.23728218122388D+03
 Leave Link  804 at Wed May 11 21:32:27 2022, MaxMem= 67108864000 cpu:              75.3 elap:               2.7
 (Enter /cm/shared/apps/gaussian/intel/EM64T/SSE4_2-enabled/binary//g16/l1002.exe)
 Minotr:  Closed shell wavefunction.
          Computing MP2/KS-MP2 derivatives.
          Using Z-Vector for PSCF gradient.
          Skipping F1 and S1 gradient terms here.
          IDoAtm=1111111111111111
          Using MO integrals in the linear equations.
          Forming densities via direct SCF.
          Differentiating once with respect to electric field.
                with respect to dipole field.
          Differentiating once with respect to nuclear coordinates.
          Requested convergence is 1.0D-10 RMS, and 1.0D-09 maximum.
          NewPWx=F KeepS1=T KeepF1=T KeepIn=T MapXYZ=F SortEE=F KeepMc=T.
          MDV=   67108864000 using IRadAn=       5.
          Solving linear equations separately, MaxMat=       0.
          There are     1 degrees of freedom in the 1st order CPHF.  IDoFFX=0 NUNeed=     1.
 FoFJK:  IHMeth= 1 ICntrl=       0 DoSepK=F KAlg= 0 I1Cent=           0 FoldK=F
 IRaf=         0 NMat=       1 IRICut=       1 DoRegI=T DoRafI=F ISym2E= 0 IDoP0=0 IntGTp=1.
 FoFCou: FMM=F IPFlag=           0 FMFlag=      100000 FMFlg1=           0
         NFxFlg=           0 DoJE=F BraDBF=F KetDBF=F FulRan=T
         wScrn=  0.000000 ICntrl=         0 IOpCl=  0 I1Cent=           0 NGrid=           0
         NMat0=    1 NMatS0=      1 NMatT0=    0 NMatD0=    1 NMtDS0=    0 NMtDT0=    0
 Symmetry not used in FoFCou.
 LinEq1:  Iter=  0 NonCon=     1 RMS=7.07D-03 Max=1.39D-01 NDo=     1
 LinEq1:  Iter=  1 NonCon=     1 RMS=1.59D-03 Max=1.39D-02 NDo=     1
 LinEq1:  Iter=  2 NonCon=     1 RMS=5.50D-04 Max=1.01D-02 NDo=     1
 LinEq1:  Iter=  3 NonCon=     1 RMS=2.39D-04 Max=2.87D-03 NDo=     1
 LinEq1:  Iter=  4 NonCon=     1 RMS=7.10D-05 Max=1.39D-03 NDo=     1
 LinEq1:  Iter=  5 NonCon=     1 RMS=2.09D-05 Max=3.15D-04 NDo=     1
 LinEq1:  Iter=  6 NonCon=     1 RMS=7.88D-06 Max=1.02D-04 NDo=     1
 LinEq1:  Iter=  7 NonCon=     1 RMS=1.61D-06 Max=2.27D-05 NDo=     1
 LinEq1:  Iter=  8 NonCon=     1 RMS=4.87D-07 Max=5.04D-06 NDo=     1
 LinEq1:  Iter=  9 NonCon=     1 RMS=1.58D-07 Max=1.49D-06 NDo=     1
 LinEq1:  Iter= 10 NonCon=     1 RMS=2.54D-08 Max=2.17D-07 NDo=     1
 LinEq1:  Iter= 11 NonCon=     1 RMS=8.39D-09 Max=7.51D-08 NDo=     1
 LinEq1:  Iter= 12 NonCon=     1 RMS=2.95D-09 Max=4.26D-08 NDo=     1
 LinEq1:  Iter= 13 NonCon=     1 RMS=5.69D-10 Max=1.07D-08 NDo=     1
 LinEq1:  Iter= 14 NonCon=     1 RMS=1.04D-10 Max=2.04D-09 NDo=     1
 LinEq1:  Iter= 15 NonCon=     0 RMS=1.72D-11 Max=2.51D-10 NDo=     1
 Linear equations converged to 1.000D-10 1.000D-09 after    15 iterations.
 End of Minotr F.D. properties file   721 does not exist.
 End of Minotr F.D. properties file   722 does not exist.
 End of Minotr F.D. properties file   788 does not exist.
 Leave Link 1002 at Wed May 11 21:32:29 2022, MaxMem= 67108864000 cpu:              46.7 elap:               1.7
 (Enter /cm/shared/apps/gaussian/intel/EM64T/SSE4_2-enabled/binary//g16/l1102.exe)
 Use density number 2.
 Symmetrizing basis deriv contribution to polar:
 IMax=3 JMax=2 DiffMx= 0.00D+00
 Leave Link 1102 at Wed May 11 21:32:29 2022, MaxMem= 67108864000 cpu:               1.7 elap:               0.1
 (Enter /cm/shared/apps/gaussian/intel/EM64T/SSE4_2-enabled/binary//g16/l1110.exe)
 Forming Gx(P) for generalized density number  2 NAtomX=    16.
 Integral derivatives from FoFJK, PRISM(SPDF).
 Do as many integral derivatives as possible in FoFJK.
 G2DrvN: MDV=   67108862744.
 G2DrvN: will do    17 centers at a time, making    1 passes.
 Calling FoFCou, ICntrl=  3107 FMM=F I1Cent=   0 AccDes= 0.00D+00.
 FoFJK:  IHMeth= 1 ICntrl=    3107 DoSepK=F KAlg= 0 I1Cent=           0 FoldK=F
 IRaf=         0 NMat=       1 IRICut=       1 DoRegI=T DoRafI=F ISym2E= 0 IDoP0=0 IntGTp=1.
 FoFCou: FMM=F IPFlag=           0 FMFlag=      100000 FMFlg1=           0
         NFxFlg=           0 DoJE=F BraDBF=F KetDBF=F FulRan=T
         wScrn=  0.000000 ICntrl=      3107 IOpCl=  0 I1Cent=           0 NGrid=           0
         NMat0=    1 NMatS0=      1 NMatT0=    0 NMatD0=    1 NMtDS0=    0 NMtDT0=    0
 Symmetry not used in FoFCou.
 End of G2Drv F.D. properties file   721 does not exist.
 End of G2Drv F.D. properties file   722 does not exist.
 End of G2Drv F.D. properties file   788 does not exist.
 Leave Link 1110 at Wed May 11 21:32:30 2022, MaxMem= 67108864000 cpu:               9.7 elap:               0.4
 (Enter /cm/shared/apps/gaussian/intel/EM64T/SSE4_2-enabled/binary//g16/l1112.exe)
 MP22nd: MDV=   67108864000
 This link is doing NAtomX=    16 total of    51 degrees of freedom.
 Using ON3 I/O method in MakUI.
 Using Ix for Sx.
 Using OV2 memory method for fx*t*t/D, MaxI=    29 DoOO2=F NP=  28.
 R2 and R3 integrals will be kept in memory, NReq=    43794580.
 FoFCou: FMM=F IPFlag=           0 FMFlag=           0 FMFlg1=           0
         NFxFlg=           0 DoJE=F BraDBF=F KetDBF=F FulRan=T
         wScrn=  0.000000 ICntrl=       600 IOpCl=  0 I1Cent=           0 NGrid=           0
         NMat0=    1 NMatS0=      1 NMatT0=    0 NMatD0=    1 NMtDS0=    0 NMtDT0=    0
 Symmetry not used in FoFCou.
 DD1Dir will call FoFMem   1 times, MxPair=       870
 NAB=   435 NAA=     0 NBB=     0.
 Symmetry is being used.
 FoFJK:  IHMeth= 1 ICntrl=       0 DoSepK=F KAlg= 0 I1Cent=           0 FoldK=F
 IRaf=         0 NMat=      51 IRICut=     127 DoRegI=T DoRafI=T ISym2E= 2 IDoP0=0 IntGTp=1.
 Discarding MO integrals.
 Leave Link 1112 at Wed May 11 21:32:45 2022, MaxMem= 67108864000 cpu:             442.4 elap:              15.8
 (Enter /cm/shared/apps/gaussian/intel/EM64T/SSE4_2-enabled/binary//g16/l601.exe)
 Copying SCF densities to generalized density rwf, IOpCl= 0 IROHF=0.

 **********************************************************************

            Population analysis using the SCF density.

 **********************************************************************

 Orbital symmetries:
       Occupied  (A) (A) (A) (A) (A) (A) (A) (A) (A) (A) (A) (A)
                 (A) (A) (A) (A) (A) (A) (A) (A) (A) (A) (A) (A)
                 (A) (A) (A) (A) (A)
       Virtual   (A) (A) (A) (A) (A) (A) (A) (A) (A) (A) (A) (A)
                 (A) (A) (A) (A) (A) (A) (A) (A) (A) (A) (A) (A)
                 (A) (A) (A) (A) (A) (A) (A) (A) (A) (A) (A) (A)
                 (A) (A) (A) (A) (A) (A) (A) (A) (A) (A) (A) (A)
                 (A) (A) (A) (A) (A) (A) (A) (A) (A) (A) (A) (A)
                 (A) (A) (A) (A) (A) (A) (A) (A) (A) (A) (A) (A)
                 (A) (A) (A) (A) (A) (A) (A) (A) (A) (A) (A) (A)
                 (A)
 The electronic state is 1-A.
 Alpha  occ. eigenvalues --   -5.43521  -3.43091  -3.42475  -3.42458  -1.75498
 Alpha  occ. eigenvalues --   -1.71177  -1.67295  -1.64126  -1.57570  -1.11091
 Alpha  occ. eigenvalues --   -1.07815  -1.06954  -1.05136  -1.02462  -1.02415
 Alpha  occ. eigenvalues --   -1.00005  -0.99146  -0.99144  -0.98710  -0.93973
 Alpha  occ. eigenvalues --   -0.92971  -0.89156  -0.88323  -0.85165  -0.82613
 Alpha  occ. eigenvalues --   -0.81945  -0.78215  -0.76383  -0.76068
 Alpha virt. eigenvalues --   -0.25867  -0.19716  -0.18994  -0.15753  -0.14806
 Alpha virt. eigenvalues --   -0.10577  -0.08837  -0.08619  -0.07309  -0.06206
 Alpha virt. eigenvalues --   -0.05948  -0.05356  -0.04419  -0.04228  -0.03251
 Alpha virt. eigenvalues --   -0.01553  -0.00352  -0.00112   0.00265   0.00982
 Alpha virt. eigenvalues --    0.01257   0.04031   0.04580   0.05780   0.06074
 Alpha virt. eigenvalues --    0.09098   0.09470   0.10587   0.11201   0.12431
 Alpha virt. eigenvalues --    0.13013   0.14096   0.16098   0.18208   0.18671
 Alpha virt. eigenvalues --    0.19888   0.24384   0.27928   0.28630   0.35132
 Alpha virt. eigenvalues --    0.61706   0.62043   0.65407   0.68954   0.92122
 Alpha virt. eigenvalues --    0.94677   1.03594   1.05611   1.06848   1.08239
 Alpha virt. eigenvalues --    1.08910   1.09936   1.11007   1.11844   1.12437
 Alpha virt. eigenvalues --    1.13771   1.14902   1.16203   1.16638   1.17637
 Alpha virt. eigenvalues --    1.18444   1.18471   1.19123   1.21148   1.23635
 Alpha virt. eigenvalues --    1.27067   1.28907   1.30581   1.31897   1.36656
 Alpha virt. eigenvalues --    1.38319   1.43050   1.45547   1.58325   2.17598
 Alpha virt. eigenvalues --    2.30739   2.48033   2.88622   3.02075   4.23474
 Alpha virt. eigenvalues --   15.47522  41.57733  41.59423  41.71593  81.45754
          Condensed to atoms (all electrons):
               1          2          3          4          5          6
     1  Hg  18.449384  -0.002159   0.000240   0.000106   0.000213   0.000033
     2  O   -0.002159   6.422425   0.250585   0.155144  -0.060788   0.001260
     3  H    0.000240   0.250585   0.234249  -0.004761   0.000582  -0.000011
     4  H    0.000106   0.155144  -0.004761   0.140401   0.089425  -0.001806
     5  O    0.000213  -0.060788   0.000582   0.089425   6.342536   0.260036
     6  H    0.000033   0.001260  -0.000011  -0.001806   0.260036   0.237748
     7  H    0.000014   0.002461  -0.000020  -0.001727   0.260619  -0.012467
     8  O   -0.001514  -0.000319   0.000023   0.000016  -0.000052   0.000000
     9  H    0.000928   0.000011  -0.000000  -0.000000   0.000001   0.000000
    10  H    0.000874   0.000016  -0.000000  -0.000000   0.000000  -0.000000
    11  O    0.190466  -0.000826   0.001319  -0.000206  -0.000517   0.000003
    12  H   -0.016575   0.000317   0.000000   0.000002   0.000027   0.000000
    13  H    0.000892   0.171044  -0.006791  -0.000198   0.000585  -0.000006
    14  O    0.095845  -0.000011   0.000001   0.000000   0.000000   0.000000
    15  H   -0.002344   0.000000   0.000000  -0.000000  -0.000000  -0.000000
    16  H   -0.002224   0.000000  -0.000000  -0.000000  -0.000000  -0.000000
               7          8          9         10         11         12
     1  Hg   0.000014  -0.001514   0.000928   0.000874   0.190466  -0.016575
     2  O    0.002461  -0.000319   0.000011   0.000016  -0.000826   0.000317
     3  H   -0.000020   0.000023  -0.000000  -0.000000   0.001319   0.000000
     4  H   -0.001727   0.000016  -0.000000  -0.000000  -0.000206   0.000002
     5  O    0.260619  -0.000052   0.000001   0.000000  -0.000517   0.000027
     6  H   -0.012467   0.000000   0.000000  -0.000000   0.000003   0.000000
     7  H    0.234054  -0.000000  -0.000000  -0.000000   0.000033  -0.000000
     8  O   -0.000000   6.419253   0.266159   0.265893  -0.024404   0.019068
     9  H   -0.000000   0.266159   0.251368  -0.017262  -0.000262  -0.000250
    10  H   -0.000000   0.265893  -0.017262   0.251889  -0.000240  -0.000261
    11  O    0.000033  -0.024404  -0.000262  -0.000240   6.705814   0.213061
    12  H   -0.000000   0.019068  -0.000250  -0.000261   0.213061   0.187442
    13  H   -0.000005  -0.000192  -0.000003  -0.000003   0.052200  -0.000527
    14  O   -0.000000  -0.000093  -0.000000  -0.000000  -0.000336  -0.000041
    15  H    0.000000   0.000005  -0.000000   0.000000  -0.000032  -0.000000
    16  H    0.000000   0.000005   0.000000  -0.000000  -0.000026  -0.000000
              13         14         15         16
     1  Hg   0.000892   0.095845  -0.002344  -0.002224
     2  O    0.171044  -0.000011   0.000000   0.000000
     3  H   -0.006791   0.000001   0.000000  -0.000000
     4  H   -0.000198   0.000000  -0.000000  -0.000000
     5  O    0.000585   0.000000  -0.000000  -0.000000
     6  H   -0.000006   0.000000  -0.000000  -0.000000
     7  H   -0.000005  -0.000000   0.000000   0.000000
     8  O   -0.000192  -0.000093   0.000005   0.000005
     9  H   -0.000003  -0.000000  -0.000000   0.000000
    10  H   -0.000003  -0.000000   0.000000  -0.000000
    11  O    0.052200  -0.000336  -0.000032  -0.000026
    12  H   -0.000527  -0.000041  -0.000000  -0.000000
    13  H    0.138656   0.000026   0.000000   0.000000
    14  O    0.000026   6.331946   0.245609   0.245613
    15  H    0.000000   0.245609   0.206358  -0.011386
    16  H    0.000000   0.245613  -0.011386   0.206258
 Mulliken charges:
               1
     1  Hg   1.285820
     2  O   -0.939159
     3  H    0.524585
     4  H    0.623602
     5  O   -0.892667
     6  H    0.515210
     7  H    0.517039
     8  O   -0.943844
     9  H    0.499311
    10  H    0.499094
    11  O   -1.136044
    12  H    0.597738
    13  H    0.644322
    14  O   -0.918558
    15  H    0.561790
    16  H    0.561761
 Sum of Mulliken charges =   2.00000
 Mulliken charges with hydrogens summed into heavy atoms:
               1
     1  Hg   1.285820
     2  O    0.853350
     5  O    0.139582
     8  O    0.054561
    11  O   -0.538306
    14  O    0.204994
         Mulliken charges condensed to fragments:
      1      1.285820
      2      0.714180
 APT charges:
               1
     1  Hg   1.233550
     2  O   -1.009332
     3  H    0.405214
     4  H    0.897426
     5  O   -0.822176
     6  H    0.403958
     7  H    0.408003
     8  O   -0.732395
     9  H    0.359932
    10  H    0.359733
    11  O   -0.977725
    12  H    0.569816
    13  H    0.759618
    14  O   -0.688448
    15  H    0.416822
    16  H    0.416005
 Sum of APT charges =   2.00000
 APT charges with hydrogens summed into heavy atoms:
               1
     1  Hg   1.233550
     2  O    1.052925
     5  O   -0.010215
     8  O   -0.012730
    11  O   -0.407910
    14  O    0.144379
         APT charges condensed to fragments:
      1      1.233550
      2      0.766450
 Electronic spatial extent (au):  <R**2>=           1831.8256
 Charge=              2.0000 electrons
 Dipole moment (field-independent basis, Debye):
    X=             -6.3094    Y=              1.3216    Z=              0.2456  Tot=              6.4510
 Quadrupole moment (field-independent basis, Debye-Ang):
   XX=             71.1985   YY=            -21.4390   ZZ=            -39.6303
   XY=              0.5051   XZ=             -4.4660   YZ=              1.8698
 Traceless Quadrupole moment (field-independent basis, Debye-Ang):
   XX=             67.8221   YY=            -24.8154   ZZ=            -43.0067
   XY=              0.5051   XZ=             -4.4660   YZ=              1.8698
 Octapole moment (field-independent basis, Debye-Ang**2):
  XXX=           -294.2177  YYY=             86.3658  ZZZ=              6.7272  XYY=            -23.8784
  XXY=            -95.7119  XXZ=            -19.9636  XZZ=             16.9561  YZZ=             -3.7215
  YYZ=             -8.9954  XYZ=             -3.0653
 Hexadecapole moment (field-independent basis, Debye-Ang**3):
 XXXX=           1314.8885 YYYY=            -80.3044 ZZZZ=            -73.6359 XXXY=            305.2031
 XXXZ=            130.7826 YYYX=            -70.8423 YYYZ=              9.4955 ZZZX=            -51.4770
 ZZZY=             -4.7235 XXYY=           -221.9961 XXZZ=           -195.6212 YYZZ=            -62.2405
 XXYZ=             64.4650 YYXZ=             35.6616 ZZXY=             -4.7350
 N-N= 2.523051257187D+02 E-N=-1.010285569881D+03  KE= 1.183968655946D+02
  Exact polarizability:  68.828  -5.570  47.356  -0.263   1.238  42.200
 Approx polarizability:  38.458  -2.110  31.023   0.474   1.029  30.768
 No NMR shielding tensors so no spin-rotation constants.
 Leave Link  601 at Wed May 11 21:32:46 2022, MaxMem= 67108864000 cpu:               4.0 elap:               0.2
 (Enter /cm/shared/apps/gaussian/intel/EM64T/SSE4_2-enabled/binary//g16/l701.exe)
 ... and contract with generalized density number  2.
 Compute integral second derivatives.
   1 Symmetry operations used in ECPInt.
 ECPInt:  NShTT=    1770 NPrTT=    5742 LenC2=    1723 LenP2D=    4364.
 LDataN:  DoStor=T MaxTD1= 9 Len=  602
 Leave Link  701 at Wed May 11 21:32:47 2022, MaxMem= 67108864000 cpu:              35.6 elap:               1.3
 (Enter /cm/shared/apps/gaussian/intel/EM64T/SSE4_2-enabled/binary//g16/l702.exe)
 L702 exits ... SP integral derivatives will be done elsewhere.
 Leave Link  702 at Wed May 11 21:32:47 2022, MaxMem= 67108864000 cpu:               0.9 elap:               0.1
 (Enter /cm/shared/apps/gaussian/intel/EM64T/SSE4_2-enabled/binary//g16/l703.exe)
 Integral derivatives from FoFJK, PRISM(SPDF).
 Compute integral second derivatives, UseDBF=F ICtDFT=           0.
 Calling FoFJK, ICntrl=  10100127 FMM=F ISym2X=0 I1Cent= 0 IOpClX= 0 NMat=1 NMatS=1 NMatT=0.
 FoFJK:  IHMeth= 1 ICntrl=10100127 DoSepK=F KAlg= 0 I1Cent=           0 FoldK=F
 IRaf=         0 NMat=       1 IRICut=       1 DoRegI=T DoRafI=F ISym2E= 0 IDoP0=0 IntGTp=1.
 FoFCou: FMM=F IPFlag=           0 FMFlag=      100000 FMFlg1=         800
         NFxFlg=           0 DoJE=F BraDBF=F KetDBF=F FulRan=T
         wScrn=  0.000000 ICntrl=  10100127 IOpCl=  0 I1Cent=           0 NGrid=           0
         NMat0=    1 NMatS0=      1 NMatT0=    0 NMatD0=    1 NMtDS0=    0 NMtDT0=    0
 Symmetry not used in FoFCou.
 Leave Link  703 at Wed May 11 21:32:48 2022, MaxMem= 67108864000 cpu:              16.4 elap:               0.6
 (Enter /cm/shared/apps/gaussian/intel/EM64T/SSE4_2-enabled/binary//g16/l716.exe)
 Dipole        =-2.71961621D+00 5.38077409D-01 1.12145528D-01
 Polarizability= 6.88284119D+01-5.57031522D+00 4.73562313D+01
                -2.63365080D-01 1.23795412D+00 4.21997401D+01
 Full mass-weighted force constant matrix:
 Low frequencies --- -385.0878 -320.1426 -293.5332  -94.3990  -92.3107  -63.1716
 Low frequencies ---  -41.7476  -22.4526   -0.0002
 ******    5 imaginary frequencies (negative Signs) ****** 
 Diagonal vibrational polarizability:
      279.2970615     974.7785598     385.2515631
 Harmonic frequencies (cm**-1), IR intensities (KM/Mole), Raman scattering
 activities (A**4/AMU), depolarization ratios for plane and unpolarized
 incident light, reduced masses (AMU), force constants (mDyne/A),
 and normal coordinates:
                      1                      2                      3
                      A                      A                      A
 Frequencies --   -384.5741              -319.1241              -292.8242
 Red. masses --      1.0146                 1.0317                 1.0237
 Frc consts  --      0.0884                 0.0619                 0.0517
 IR Inten    --     12.9812                52.0538                46.4305
  Atom  AN      X      Y      Z        X      Y      Z        X      Y      Z
     1  80    -0.00  -0.00   0.00     0.00   0.00  -0.00     0.00   0.00   0.00
     2   8    -0.00  -0.00  -0.00    -0.01   0.01   0.00     0.00   0.00   0.00
     3   1    -0.01  -0.00  -0.01    -0.01   0.02  -0.00     0.00   0.01   0.00
     4   1     0.00  -0.00  -0.01    -0.01   0.04   0.00    -0.00  -0.00   0.00
     5   8     0.00   0.00  -0.01     0.01  -0.03  -0.01    -0.00  -0.00   0.01
     6   1    -0.01  -0.01   0.01     0.25   0.36  -0.56    -0.00  -0.01   0.01
     7   1     0.01   0.00  -0.02    -0.33  -0.07   0.61     0.00  -0.01   0.01
     8   8    -0.00  -0.00  -0.01    -0.00   0.00   0.02    -0.00  -0.00  -0.01
     9   1    -0.67  -0.10   0.19    -0.01   0.01   0.02     0.01  -0.01  -0.02
    10   1     0.69   0.11  -0.07     0.03  -0.00   0.02    -0.02   0.01  -0.02
    11   8     0.00   0.00   0.01    -0.00  -0.00   0.00    -0.00   0.00  -0.01
    12   1     0.02   0.01   0.09    -0.00  -0.00   0.01     0.00   0.00  -0.00
    13   1     0.00   0.00   0.00     0.01  -0.02  -0.00    -0.00   0.00  -0.00
    14   8     0.00   0.00   0.00     0.00   0.00  -0.01    -0.00  -0.00  -0.03
    15   1    -0.00  -0.01   0.01     0.00  -0.00  -0.01    -0.16  -0.62   0.30
    16   1     0.00   0.01   0.00    -0.00   0.01  -0.01     0.23   0.66   0.10
                      4                      5                      6
                      A                      A                      A
 Frequencies --    -92.9633               -76.1407                19.7240
 Red. masses --      2.5889                 3.2249                 5.1500
 Frc consts  --      0.0132                 0.0110                 0.0012
 IR Inten    --      5.8855                47.3592                11.5213
  Atom  AN      X      Y      Z        X      Y      Z        X      Y      Z
     1  80    -0.00  -0.00  -0.01     0.00   0.00  -0.02     0.00  -0.01   0.00
     2   8    -0.06   0.20   0.06     0.04  -0.08  -0.06    -0.19   0.05   0.09
     3   1    -0.10   0.44   0.01     0.13  -0.10  -0.03    -0.24   0.22   0.04
     4   1    -0.03   0.09   0.03    -0.04  -0.06   0.01    -0.14   0.05   0.04
     5   8     0.03  -0.18  -0.02    -0.11   0.04   0.13    -0.10   0.05  -0.04
     6   1    -0.15  -0.40  -0.13    -0.02   0.15   0.22    -0.12   0.03  -0.06
     7   1     0.31  -0.30   0.04    -0.26   0.10   0.13    -0.06   0.05  -0.07
     8   8     0.04   0.04   0.11     0.02   0.01   0.05     0.19  -0.18  -0.03
     9   1     0.03   0.28   0.26    -0.03   0.34   0.26     0.23  -0.16  -0.03
    10   1     0.12  -0.16   0.29     0.15  -0.27   0.30     0.23  -0.17  -0.04
    11   8     0.00   0.03  -0.07    -0.03  -0.03  -0.21    -0.07  -0.18   0.02
    12   1     0.02   0.02  -0.10    -0.04  -0.03  -0.25    -0.08  -0.18   0.01
    13   1    -0.02   0.10  -0.01    -0.00  -0.05  -0.13    -0.11  -0.10   0.06
    14   8    -0.01  -0.03   0.03     0.04   0.03   0.23     0.14   0.30  -0.04
    15   1    -0.02  -0.03   0.03    -0.05   0.08   0.31     0.12   0.39  -0.04
    16   1     0.00  -0.04   0.03     0.16  -0.01   0.28     0.13   0.38  -0.04
                      7                      8                      9
                      A                      A                      A
 Frequencies --     33.6608                61.6866               103.5748
 Red. masses --      5.3989                 5.4260                 3.7301
 Frc consts  --      0.0036                 0.0122                 0.0236
 IR Inten    --      5.0349                14.0207                13.2492
  Atom  AN      X      Y      Z        X      Y      Z        X      Y      Z
     1  80    -0.04   0.03   0.01    -0.04  -0.01  -0.04     0.01   0.02  -0.04
     2   8     0.09  -0.16  -0.07     0.11  -0.05   0.24    -0.10   0.00  -0.02
     3   1     0.12  -0.35  -0.03     0.03  -0.07   0.22    -0.12  -0.05  -0.02
     4   1     0.05  -0.16  -0.04     0.21  -0.02   0.16    -0.10   0.01  -0.04
     5   8     0.01  -0.16   0.03     0.34   0.10  -0.08    -0.12  -0.06   0.01
     6   1     0.03  -0.14   0.04     0.36   0.13  -0.15    -0.16  -0.10  -0.00
     7   1    -0.02  -0.16   0.05     0.33   0.13  -0.18    -0.07  -0.09   0.05
     8   8     0.42   0.02  -0.03     0.03  -0.02   0.03     0.03  -0.02   0.06
     9   1     0.48   0.07  -0.03     0.05  -0.01   0.03     0.08  -0.40  -0.18
    10   1     0.49   0.02  -0.02     0.04  -0.03   0.03    -0.10   0.31  -0.23
    11   8    -0.02   0.07   0.02    -0.03  -0.01   0.04     0.04   0.00   0.25
    12   1     0.05   0.06   0.01    -0.03  -0.01   0.03     0.05   0.01   0.37
    13   1     0.01  -0.02  -0.04     0.10  -0.01   0.26    -0.07  -0.02   0.05
    14   8    -0.08  -0.04  -0.05     0.01   0.06   0.19     0.00  -0.08   0.21
    15   1    -0.04  -0.07  -0.07    -0.11   0.13   0.30    -0.12  -0.05   0.33
    16   1    -0.11  -0.04  -0.06     0.16   0.03   0.26     0.17  -0.17   0.29
                     10                     11                     12
                      A                      A                      A
 Frequencies --    111.7791               209.1457               236.9073
 Red. masses --      5.3133                 4.3292                 1.6876
 Frc consts  --      0.0391                 0.1116                 0.0558
 IR Inten    --      2.6155                76.4501                15.6061
  Atom  AN      X      Y      Z        X      Y      Z        X      Y      Z
     1  80    -0.03  -0.06  -0.00     0.02  -0.02  -0.00    -0.00   0.00  -0.00
     2   8     0.14   0.09  -0.15    -0.23  -0.17   0.16     0.02   0.02  -0.04
     3   1     0.18  -0.06  -0.11    -0.27  -0.30   0.17     0.00  -0.06  -0.03
     4   1     0.08   0.07  -0.08    -0.22  -0.12   0.04     0.03   0.03  -0.04
     5   8    -0.02  -0.04   0.06    -0.03  -0.01  -0.05    -0.01   0.01  -0.01
     6   1    -0.05  -0.07   0.09     0.01   0.06  -0.13    -0.02  -0.00   0.01
     7   1     0.01  -0.07   0.15    -0.06   0.03  -0.18    -0.00   0.00   0.01
     8   8    -0.00   0.18   0.01     0.01   0.30  -0.07    -0.03  -0.05  -0.10
     9   1    -0.01  -0.04  -0.11    -0.02   0.52   0.07     0.00   0.58   0.26
    10   1    -0.10   0.36  -0.14     0.03   0.11   0.10     0.09  -0.58   0.37
    11   8     0.08   0.18   0.09     0.02   0.07   0.00     0.03   0.01   0.17
    12   1     0.17   0.19   0.15     0.03   0.05  -0.13    -0.05  -0.03  -0.24
    13   1     0.08   0.20  -0.11    -0.29  -0.10   0.23     0.04   0.03   0.02
    14   8     0.13   0.27   0.03     0.05   0.00  -0.01    -0.00   0.00   0.00
    15   1     0.06   0.41   0.06     0.04   0.03  -0.02    -0.02  -0.01   0.02
    16   1     0.17   0.36   0.05     0.04   0.04  -0.02     0.02   0.01   0.01
                     13                     14                     15
                      A                      A                      A
 Frequencies --    325.8800               385.0809               459.7511
 Red. masses --      1.1179                 4.1178                 3.4153
 Frc consts  --      0.0699                 0.3598                 0.4253
 IR Inten    --     83.7865                74.8635               379.0684
  Atom  AN      X      Y      Z        X      Y      Z        X      Y      Z
     1  80    -0.00  -0.00  -0.00    -0.00  -0.00   0.00    -0.01   0.00   0.00
     2   8     0.04  -0.00   0.03    -0.07  -0.02   0.08    -0.19  -0.04  -0.16
     3   1    -0.16   0.59  -0.13    -0.14  -0.20   0.09    -0.27   0.41  -0.26
     4   1     0.15  -0.30  -0.06    -0.03  -0.20  -0.01    -0.32  -0.04  -0.38
     5   8    -0.01  -0.05  -0.03    -0.03  -0.05  -0.04     0.22   0.02   0.19
     6   1     0.23   0.23   0.30     0.16   0.18   0.10     0.28   0.09   0.19
     7   1    -0.43   0.15  -0.22    -0.32   0.11  -0.24     0.23   0.04   0.10
     8   8     0.00   0.03   0.00    -0.02  -0.24   0.04    -0.01  -0.02  -0.00
     9   1     0.03   0.05   0.00    -0.02  -0.25   0.03     0.02  -0.01  -0.01
    10   1     0.02   0.03   0.00    -0.02  -0.25   0.05     0.02  -0.02  -0.00
    11   8    -0.00  -0.01   0.03     0.12   0.33  -0.07     0.01   0.02   0.01
    12   1    -0.02  -0.02   0.02     0.29   0.35  -0.09     0.03   0.02   0.02
    13   1     0.08  -0.10  -0.08    -0.18   0.16   0.15    -0.14  -0.20  -0.15
    14   8    -0.01   0.00  -0.00     0.05  -0.01  -0.01     0.10  -0.05  -0.01
    15   1    -0.01  -0.01   0.00     0.04   0.05  -0.02     0.08   0.03  -0.02
    16   1    -0.01  -0.01  -0.00     0.04   0.05  -0.01     0.09   0.02  -0.01
                     16                     17                     18
                      A                      A                      A
 Frequencies --    471.2619               477.7383               585.6373
 Red. masses --      6.0174                 1.4883                 1.0570
 Frc consts  --      0.7874                 0.2001                 0.2136
 IR Inten    --     31.8341                59.8439               109.7469
  Atom  AN      X      Y      Z        X      Y      Z        X      Y      Z
     1  80    -0.03   0.02   0.00    -0.01   0.00   0.00    -0.00   0.00  -0.00
     2   8     0.08   0.08   0.03     0.04  -0.12   0.04    -0.02   0.02  -0.01
     3   1     0.09  -0.34   0.10     0.09   0.66  -0.08     0.54   0.04   0.13
     4   1     0.16  -0.03   0.09    -0.03   0.11   0.13    -0.24  -0.13   0.30
     5   8    -0.05  -0.03  -0.05    -0.05   0.06  -0.03     0.01  -0.02   0.03
     6   1     0.03   0.05   0.07    -0.29  -0.21  -0.28     0.10   0.14  -0.31
     7   1    -0.19   0.03  -0.08     0.29  -0.12   0.18    -0.02   0.11  -0.43
     8   8    -0.00   0.03   0.00    -0.01  -0.02  -0.01     0.01   0.00  -0.00
     9   1     0.03   0.04  -0.01     0.03  -0.00  -0.01    -0.08  -0.02   0.02
    10   1     0.03   0.04  -0.01     0.03  -0.01  -0.01    -0.09  -0.03   0.02
    11   8    -0.14  -0.04   0.02     0.02   0.06   0.01     0.00  -0.01   0.02
    12   1    -0.12  -0.03   0.02     0.02   0.07  -0.01     0.02  -0.01   0.02
    13   1     0.04   0.20   0.10     0.08  -0.28  -0.23    -0.14  -0.01  -0.40
    14   8     0.46  -0.24  -0.05     0.05  -0.02  -0.00    -0.00  -0.00  -0.00
    15   1     0.44   0.01  -0.09     0.05   0.01  -0.01    -0.00   0.01  -0.00
    16   1     0.44   0.02  -0.07     0.05   0.00  -0.00    -0.00   0.00  -0.00
                     19                     20                     21
                      A                      A                      A
 Frequencies --    594.1755               675.4633               695.7884
 Red. masses --      1.1632                 1.5822                 2.9463
 Frc consts  --      0.2420                 0.4253                 0.8404
 IR Inten    --    459.1503               289.2884               134.4095
  Atom  AN      X      Y      Z        X      Y      Z        X      Y      Z
     1  80     0.00  -0.00  -0.00    -0.01   0.01   0.00    -0.03   0.01   0.00
     2   8    -0.00   0.00  -0.00     0.00   0.00   0.01     0.01   0.00   0.01
     3   1     0.08  -0.03   0.02     0.01  -0.04   0.02    -0.10  -0.06  -0.01
     4   1    -0.03  -0.01   0.04    -0.01   0.01  -0.02     0.01   0.02  -0.07
     5   8     0.00  -0.01   0.01    -0.01  -0.00  -0.01    -0.02  -0.01   0.01
     6   1     0.01   0.02  -0.05    -0.00   0.01   0.00    -0.00   0.04  -0.17
     7   1     0.00   0.02  -0.08    -0.02   0.00  -0.01     0.02   0.03  -0.17
     8   8    -0.10  -0.02   0.02    -0.01   0.01   0.00    -0.00   0.02  -0.00
     9   1     0.65   0.19  -0.15     0.06   0.03  -0.01     0.02   0.02  -0.01
    10   1     0.65   0.19  -0.13     0.07   0.03  -0.01     0.02   0.02  -0.01
    11   8    -0.01   0.01   0.00     0.15  -0.07  -0.02     0.30  -0.12  -0.04
    12   1    -0.08   0.01   0.02     0.06  -0.06  -0.00     0.18  -0.12  -0.02
    13   1    -0.03   0.02  -0.04     0.02  -0.05   0.03     0.07  -0.07   0.13
    14   8    -0.00   0.01  -0.00    -0.02  -0.10   0.01     0.07   0.06  -0.02
    15   1     0.00  -0.04   0.01    -0.10   0.67  -0.09     0.13  -0.58   0.07
    16   1     0.00  -0.04   0.00    -0.10   0.68  -0.02     0.13  -0.59   0.01
                     22                     23                     24
                      A                      A                      A
 Frequencies --    704.1350               749.2140              1079.9656
 Red. masses --      1.2051                 1.1358                 1.0545
 Frc consts  --      0.3520                 0.3756                 0.7246
 IR Inten    --    346.8422                41.8096               143.3994
  Atom  AN      X      Y      Z        X      Y      Z        X      Y      Z
     1  80    -0.00   0.00   0.00     0.00   0.00   0.01     0.00  -0.00   0.00
     2   8    -0.04   0.01   0.01    -0.00   0.00   0.00    -0.01   0.01   0.00
     3   1     0.43  -0.03   0.14     0.01  -0.00   0.00     0.05  -0.05   0.02
     4   1    -0.17  -0.03   0.12    -0.01  -0.00   0.00     0.01   0.09  -0.04
     5   8     0.04   0.01  -0.09     0.00  -0.00  -0.00    -0.00  -0.01  -0.00
     6   1     0.01  -0.11   0.59     0.00  -0.00   0.01     0.02   0.02   0.02
     7   1    -0.15  -0.08   0.49    -0.00  -0.00   0.01    -0.02   0.01  -0.04
     8   8    -0.00   0.00   0.00    -0.00  -0.00  -0.00    -0.01  -0.00  -0.04
     9   1     0.01   0.01   0.00    -0.00   0.00  -0.00     0.05   0.18   0.05
    10   1     0.01   0.00   0.00     0.00  -0.00  -0.00    -0.03  -0.17   0.10
    11   8     0.04  -0.01   0.00    -0.00  -0.00  -0.01    -0.01   0.01  -0.03
    12   1     0.03  -0.01   0.00     0.00   0.00  -0.00     0.08   0.12   0.88
    13   1    -0.10  -0.07  -0.27    -0.00   0.00  -0.01     0.18  -0.27   0.03
    14   8     0.01   0.01  -0.00    -0.02  -0.01  -0.09     0.00   0.00   0.00
    15   1     0.03  -0.08  -0.00    -0.52   0.34   0.33     0.00  -0.00  -0.00
    16   1     0.00  -0.06  -0.00     0.61  -0.27   0.20    -0.00  -0.00  -0.00
                     25                     26                     27
                      A                      A                      A
 Frequencies --   1082.2268              1345.4668              1383.1375
 Red. masses --      1.0611                 1.0993                 1.0656
 Frc consts  --      0.7322                 1.1725                 1.2010
 IR Inten    --    117.0196              1160.5413              1217.1839
  Atom  AN      X      Y      Z        X      Y      Z        X      Y      Z
     1  80    -0.00   0.00  -0.00     0.00   0.00  -0.00    -0.00   0.00  -0.00
     2   8     0.03  -0.03   0.00     0.05  -0.01   0.03    -0.04   0.01  -0.02
     3   1    -0.16   0.13  -0.06     0.18   0.10   0.05    -0.07  -0.08  -0.02
     4   1    -0.02  -0.22   0.07    -0.51   0.25  -0.46     0.43  -0.00   0.31
     5   8     0.00   0.02  -0.00    -0.02  -0.02  -0.01     0.02   0.00   0.01
     6   1    -0.05  -0.05  -0.03     0.10   0.13   0.06    -0.05  -0.08  -0.02
     7   1     0.05  -0.03   0.10     0.05  -0.03  -0.07    -0.07   0.03   0.01
     8   8    -0.01  -0.00  -0.01    -0.01   0.00   0.00    -0.01   0.01   0.00
     9   1     0.03   0.07   0.02     0.03  -0.02  -0.02     0.04  -0.02  -0.03
    10   1    -0.00  -0.07   0.04     0.03  -0.01   0.01     0.05  -0.01   0.02
    11   8     0.00  -0.03  -0.01    -0.04  -0.02   0.01    -0.03  -0.02   0.01
    12   1     0.26  -0.01   0.31     0.56  -0.03  -0.11     0.77  -0.01  -0.14
    13   1    -0.47   0.69  -0.11     0.02   0.01   0.20     0.08  -0.21  -0.11
    14   8    -0.00  -0.00   0.00    -0.00   0.00   0.00    -0.00  -0.00   0.00
    15   1     0.00   0.00  -0.00    -0.00   0.00  -0.00     0.00   0.01  -0.00
    16   1    -0.00   0.00  -0.00    -0.00   0.00   0.00     0.00   0.01   0.00
                     28                     29                     30
                      A                      A                      A
 Frequencies --   1542.7319              1728.2369              1738.0390
 Red. masses --      1.0718                 1.0747                 1.0884
 Frc consts  --      1.5029                 1.8912                 1.9371
 IR Inten    --    671.1661               330.8195               119.9010
  Atom  AN      X      Y      Z        X      Y      Z        X      Y      Z
     1  80    -0.00   0.00   0.00    -0.00  -0.00  -0.00    -0.00   0.00  -0.00
     2   8    -0.02  -0.05  -0.01    -0.02  -0.00   0.03     0.00   0.00  -0.01
     3   1     0.03   0.14  -0.01     0.13  -0.06   0.06    -0.01   0.01  -0.01
     4   1     0.17   0.86   0.22     0.50   0.07  -0.41    -0.06  -0.02   0.05
     5   8     0.01  -0.04   0.00    -0.05  -0.01   0.00     0.01   0.00   0.00
     6   1     0.08   0.04   0.11     0.26   0.31   0.08    -0.04  -0.05  -0.02
     7   1    -0.19   0.08  -0.13     0.43  -0.14   0.01    -0.07   0.02  -0.00
     8   8     0.00  -0.00  -0.00     0.00  -0.01   0.00     0.02  -0.07   0.00
     9   1    -0.01   0.01   0.01    -0.02   0.08   0.05    -0.09   0.59   0.35
    10   1    -0.01   0.00  -0.00    -0.03   0.08  -0.06    -0.22   0.50  -0.42
    11   8     0.01  -0.00  -0.00     0.00   0.00   0.00    -0.00   0.00  -0.00
    12   1    -0.09  -0.00   0.02    -0.02  -0.01  -0.00     0.07  -0.03  -0.01
    13   1    -0.12   0.23   0.02    -0.17  -0.01  -0.34     0.03  -0.01   0.06
    14   8     0.00  -0.00  -0.00    -0.00  -0.00  -0.00     0.00   0.00  -0.00
    15   1     0.00   0.00   0.00     0.01   0.00  -0.01    -0.01  -0.00   0.01
    16   1     0.00   0.00  -0.00     0.01   0.00   0.00    -0.01  -0.00  -0.00
                     31                     32                     33
                      A                      A                      A
 Frequencies --   1747.5860              1797.0092              1837.1868
 Red. masses --      1.0859                 1.0553                 1.1045
 Frc consts  --      1.9540                 2.0079                 2.1964
 IR Inten    --    133.1725               116.6939              1008.7901
  Atom  AN      X      Y      Z        X      Y      Z        X      Y      Z
     1  80    -0.00  -0.00   0.00    -0.00   0.00   0.00    -0.00   0.00   0.00
     2   8     0.00  -0.00  -0.00     0.03   0.01  -0.02    -0.05  -0.02  -0.05
     3   1    -0.00   0.00  -0.00    -0.36  -0.08  -0.10     0.45   0.25   0.05
     4   1    -0.01  -0.00   0.01    -0.33   0.04   0.53     0.21  -0.20   0.20
     5   8     0.00  -0.00  -0.00    -0.04  -0.01  -0.02    -0.02   0.00  -0.01
     6   1    -0.00  -0.00  -0.00     0.31   0.35   0.20     0.13   0.15   0.05
     7   1    -0.01   0.00   0.00     0.40  -0.16   0.04     0.23  -0.08   0.04
     8   8     0.00  -0.00   0.00     0.00  -0.00   0.00    -0.00   0.00  -0.00
     9   1    -0.00   0.01   0.00    -0.00   0.01   0.01     0.00  -0.00  -0.00
    10   1    -0.00   0.01  -0.01    -0.00   0.01  -0.01    -0.00  -0.01   0.00
    11   8     0.00   0.00  -0.00     0.00   0.00   0.00     0.00  -0.00  -0.01
    12   1    -0.01  -0.00   0.00     0.03   0.00  -0.00     0.00   0.01   0.01
    13   1     0.00   0.00   0.01     0.09  -0.07  -0.08     0.14   0.18   0.67
    14   8    -0.07  -0.00   0.01     0.00  -0.00   0.00     0.00  -0.00   0.00
    15   1     0.50  -0.01  -0.49    -0.00   0.00   0.00    -0.00   0.00   0.00
    16   1     0.64   0.08   0.29    -0.00   0.00  -0.00    -0.00   0.00  -0.00
                     34                     35                     36
                      A                      A                      A
 Frequencies --   2832.9179              2881.5576              3626.9263
 Red. masses --      1.0713                 1.0694                 1.0405
 Frc consts  --      5.0654                 5.2317                 8.0647
 IR Inten    --   2246.4054              2007.9598               215.6627
  Atom  AN      X      Y      Z        X      Y      Z        X      Y      Z
     1  80     0.00   0.00  -0.00     0.00  -0.00  -0.00     0.00   0.00  -0.00
     2   8    -0.03  -0.02   0.01     0.04   0.02  -0.01    -0.00  -0.00  -0.00
     3   1    -0.01  -0.01   0.04     0.01   0.01  -0.05    -0.00   0.00   0.01
     4   1    -0.04  -0.01  -0.06     0.03   0.01   0.05     0.00   0.00   0.00
     5   8     0.00   0.00   0.00    -0.00  -0.00  -0.00     0.00   0.00   0.00
     6   1     0.00  -0.00  -0.01    -0.00   0.00   0.00    -0.00   0.00   0.00
     7   1    -0.00   0.01  -0.00    -0.00  -0.01   0.00    -0.00  -0.00  -0.00
     8   8     0.00  -0.00  -0.00     0.00  -0.00  -0.00     0.00  -0.00  -0.00
     9   1    -0.00   0.02   0.00    -0.01   0.02   0.00    -0.00   0.00  -0.00
    10   1    -0.01   0.02  -0.00    -0.01   0.02  -0.00    -0.00   0.00   0.00
    11   8     0.00  -0.05   0.01    -0.00  -0.04   0.01    -0.00   0.00  -0.00
    12   1     0.01   0.74  -0.09    -0.04   0.66  -0.07    -0.00  -0.01   0.00
    13   1     0.52   0.34  -0.20    -0.61  -0.36   0.23     0.01   0.00  -0.00
    14   8    -0.00  -0.00   0.00    -0.00   0.00   0.00     0.05   0.01  -0.01
    15   1    -0.00   0.00  -0.00    -0.01  -0.00  -0.01    -0.46  -0.12  -0.53
    16   1    -0.00   0.00   0.00    -0.00  -0.00   0.01    -0.26   0.00   0.65
                     37                     38                     39
                      A                      A                      A
 Frequencies --   3698.4341              3723.5690              3729.5665
 Red. masses --      1.0406                 1.0404                 1.0859
 Frc consts  --      8.3859                 8.4993                 8.8990
 IR Inten    --     73.2326                35.1838               274.0782
  Atom  AN      X      Y      Z        X      Y      Z        X      Y      Z
     1  80    -0.00   0.00   0.00    -0.00   0.00   0.00     0.00   0.00   0.00
     2   8     0.00   0.00  -0.00     0.00  -0.00  -0.00    -0.00   0.00   0.00
     3   1    -0.01   0.00   0.03    -0.00   0.00   0.01     0.00  -0.00  -0.01
     4   1    -0.02  -0.00   0.00     0.00   0.00   0.00     0.00   0.00   0.00
     5   8    -0.04  -0.01  -0.01    -0.00  -0.00  -0.00    -0.00  -0.00   0.00
     6   1     0.51  -0.46  -0.07     0.00  -0.00  -0.00     0.00  -0.00   0.00
     7   1     0.19   0.67   0.18     0.00   0.00   0.00    -0.00  -0.00   0.00
     8   8     0.00  -0.00   0.00    -0.01   0.04  -0.00     0.00   0.00  -0.00
     9   1    -0.00   0.00  -0.00     0.21  -0.28   0.60    -0.00   0.00  -0.00
    10   1    -0.00   0.00   0.00     0.01  -0.42  -0.57     0.00  -0.00  -0.00
    11   8     0.00   0.00  -0.00     0.00  -0.00   0.00    -0.00   0.00  -0.00
    12   1    -0.00  -0.00  -0.00    -0.00   0.02  -0.00     0.00  -0.00   0.00
    13   1    -0.01  -0.00   0.00     0.00   0.00  -0.00     0.00   0.00   0.00
    14   8     0.00   0.00  -0.00     0.00   0.00  -0.00    -0.01  -0.01  -0.07
    15   1    -0.00  -0.00  -0.00    -0.00  -0.00  -0.00     0.49   0.13   0.48
    16   1    -0.00   0.00   0.00    -0.00   0.00   0.00    -0.31  -0.02   0.64
                     40                     41                     42
                      A                      A                      A
 Frequencies --   3749.9371              3803.0665              3832.7965
 Red. masses --      1.0649                 1.0846                 1.0840
 Frc consts  --      8.8228                 9.2424                 9.3822
 IR Inten    --    186.1819               198.4273               137.6022
  Atom  AN      X      Y      Z        X      Y      Z        X      Y      Z
     1  80     0.00  -0.00   0.00     0.00   0.00  -0.00     0.00   0.00   0.00
     2   8     0.02  -0.01  -0.06     0.00  -0.00  -0.00     0.00   0.00  -0.00
     3   1    -0.25   0.15   0.95    -0.00   0.00   0.00    -0.00   0.00   0.00
     4   1     0.01  -0.01  -0.01     0.00  -0.00  -0.00     0.00  -0.00   0.00
     5   8     0.00   0.00   0.00     0.02  -0.07  -0.01    -0.00   0.00  -0.00
     6   1    -0.01   0.01   0.00    -0.57   0.44   0.07     0.00  -0.00   0.00
     7   1    -0.01  -0.02  -0.01     0.23   0.63   0.16    -0.00  -0.00  -0.00
     8   8     0.00  -0.00   0.00    -0.00  -0.00   0.00    -0.01  -0.01  -0.07
     9   1    -0.00   0.00  -0.01    -0.00  -0.00   0.00     0.23  -0.34   0.58
    10   1    -0.00   0.00   0.01    -0.00   0.00   0.00    -0.03   0.46   0.52
    11   8    -0.00  -0.00   0.00    -0.00  -0.00   0.00    -0.00  -0.00  -0.00
    12   1    -0.00   0.00   0.00    -0.00   0.00  -0.00    -0.00   0.00  -0.00
    13   1    -0.02  -0.03  -0.01    -0.00  -0.00   0.00    -0.00  -0.00   0.00
    14   8    -0.00  -0.00  -0.00     0.00   0.00  -0.00    -0.00  -0.00  -0.00
    15   1     0.01   0.00   0.01     0.00   0.00   0.00     0.00   0.00   0.00
    16   1     0.00  -0.00  -0.00    -0.00   0.00   0.00    -0.00  -0.00   0.00

 -------------------
 - Thermochemistry -
 -------------------
 Temperature   298.150 Kelvin.  Pressure   1.00000 Atm.
 Atom     1 has atomic number 80 and mass 201.97060
 Atom     2 has atomic number  8 and mass  15.99491
 Atom     3 has atomic number  1 and mass   1.00783
 Atom     4 has atomic number  1 and mass   1.00783
 Atom     5 has atomic number  8 and mass  15.99491
 Atom     6 has atomic number  1 and mass   1.00783
 Atom     7 has atomic number  1 and mass   1.00783
[...]
   zx        -0.391481D+01     -0.580114D+00     -0.645464D+00
   zy         0.243908D+00      0.361434D-01      0.402149D-01
   zz         0.425559D+02      0.630614D+01      0.701652D+01

 ----------------------------------------------------------------------

 Dipole orientation:
    80         -0.69817589         -2.99513130         -3.32087268
     8         -2.48441628         -0.74060231          3.89655639
     1         -4.13741919         -1.29992799          4.48318512
     1         -1.18376719         -0.17925089          5.48128111
     8          0.42063768          0.63399100          7.20715012
     1          0.45299609         -0.16948686          8.86298182
     1          0.50627003          2.45367584          7.47892955
     8          0.71117240         -8.30972131          0.58373747
     1          2.35006575         -8.76426068          1.27884545
     1         -0.40116090         -9.72038085          0.97052315
     8         -0.86576639         -3.67679863          0.30401465
     1         -0.26179453         -5.49811780          0.56354468
     1         -1.79851272         -1.94576196          2.54996741
     8         -0.61201439         -1.99255049         -7.16433911
     1         -1.79013926         -2.83949784         -8.31370767
     1          1.03452703         -1.89751869         -8.00413639

 Electric dipole moment (dipole orientation):
 (Debye = 10**-18 statcoulomb cm , SI units = C m)
                  (au)            (Debye)         (10**-30 SI)
   Tot        0.277460D+01      0.705233D+01      0.235241D+02
   x          0.000000D+00      0.000000D+00      0.000000D+00
   y          0.000000D+00      0.000000D+00      0.000000D+00
   z          0.277460D+01      0.705233D+01      0.235241D+02

 Dipole polarizability, Alpha (dipole orientation).
 (esu units = cm**3 , SI units = C**2 m**2 J**-1)
 Alpha(0;0):
               (au)            (10**-24 esu)      (10**-40 SI)
   iso        0.527948D+02      0.782338D+01      0.870469D+01
   aniso      0.263867D+02      0.391010D+01      0.435057D+01
   xx         0.419268D+02      0.621291D+01      0.691279D+01
   yx         0.327344D+00      0.485073D-01      0.539717D-01
   yy         0.463223D+02      0.686425D+01      0.763751D+01
   zx         0.829465D+00      0.122914D+00      0.136760D+00
   zy        -0.969303D+00     -0.143636D+00     -0.159816D+00
   zz         0.701353D+02      0.103930D+02      0.115638D+02

 ----------------------------------------------------------------------
 1\1\GINC-CTCP002\Freq\RMP2-Full\SDDAll\H10Hg1O5(2+)\FLOREZ\11-May-2022
 \0\\#p MP2(full) SDDAll freq\\file 'w5s6.log' Now we use Def2-QZVPPD, 
 but it was opt at: ---' #p ZORA-SR+SO PBE QZ4P'---\\2,1\Hg,1.828764,-1
 .370428,-0.717176\O,-2.165215,-0.474913,-1.104553\H,-2.553126,-0.72338
 6,-1.96299\H,-2.936308,-0.32028,-0.300366\O,-3.773153,-0.054456,0.6840
 9\H,-4.601104,-0.56211,0.759149\H,-3.992419,0.882659,0.838105\O,0.1172
 57,-4.422599,-0.017259\H,-0.120466,-4.770968,0.858774\H,-0.092684,-5.1
 32132,-0.648212\O,-0.047963,-1.905648,-0.622612\H,-0.062303,-2.902039,
 -0.384029\H,-1.36177,-1.069669,-0.887811\O,3.800076,-0.651952,-0.85105
 2\H,4.364187,-0.984243,-1.579637\H,4.341116,-0.633895,-0.034868\\Versi
 on=ES64L-G16RevA.03\State=1-A\HF=-236.4882258\MP2=-237.2821812\RMSD=5.
 892e-09\RMSF=7.950e-03\ZeroPoint=0.1231599\Thermal=0.1333774\Dipole=-2
 .7437436,-0.2677653,0.3139887\DipoleDeriv=1.7302926,0.2897922,-0.06552
 99,0.3312813,1.0706597,-0.0359796,-0.0625631,-0.0349867,0.8996977,-1.4
 440816,0.2814511,0.2973929,0.4259707,-0.7898984,0.0449955,0.2892935,-0
 .0190316,-0.7940158,0.3787866,0.0279433,0.0035613,0.0018935,0.4250029,
 -0.1019884,0.0403207,-0.0532874,0.4118513,1.1686352,-0.258525,-0.62941
 38,-0.2799117,0.4990885,0.2059678,-0.8421221,0.2661092,1.0245547,-0.84
 68698,0.110892,0.1606169,0.1272502,-0.5786914,-0.0420857,0.3209501,-0.
 0866137,-1.0409675,0.3457978,-0.0169836,0.0387083,0.0222828,0.3997956,
 -0.0602952,0.0085165,-0.0555883,0.4662818,0.3627488,0.0407475,0.069611
 ,-0.0045528,0.3856737,0.010241,0.039909,0.0261757,0.4755865,-0.7393518
 ,0.1574498,-0.0398354,-0.0137287,-0.9193743,0.0934165,-0.0005991,0.099
 4342,-0.5384578,0.4398846,-0.0643697,0.0546011,-0.0464841,0.3092718,0.
 0370287,0.0311304,0.0221535,0.3306389,0.4419135,-0.0806884,-0.0178926,
 -0.0533984,0.2885476,-0.0161507,-0.0033461,-0.0038315,0.3487364,-1.134
 5959,0.1058709,-0.0232669,-0.1020521,-1.1434674,0.1157853,-0.0070358,0
 .1280578,-0.6551129,0.1337127,-0.0426696,0.0056614,0.4277101,1.2077443
 ,-0.2037838,-0.108083,-0.2131401,0.36799,1.3844801,-0.3653897,0.110537
 2,-0.638697,0.573442,-0.07174,0.258314,-0.0984685,0.3209309,-0.9887615
 ,-0.2140391,0.0451636,-0.2298426,-0.6011038,0.0282859,0.0440287,0.0263
 181,-0.475478,0.3867401,0.0044556,-0.0529935,-0.0169389,0.4123715,-0.0
 381733,-0.1529594,-0.0675986,0.4513557,0.3806685,0.0240627,0.0430783,0
 .0492179,0.4609378,0.034476,0.1442456,0.0642978,0.4064081\Polar=69.173
 1241,3.3632666,46.655336,-3.9148063,0.2439076,42.5559232\PG=C01 [X(H10
 Hg1O5)]\NImag=5\\0.39748067,0.11842024,0.07061386,-0.02127285,-0.00733
 019,0.03330960,0.00553990,0.00383052,-0.00062758,0.47133395,-0.0016858
 7,-0.00485229,0.00129005,-0.14410359,0.22138815,-0.00059209,0.00108060
 ,-0.00068279,0.14199653,0.09169351,0.59935481,-0.00096746,0.00020551,-
 0.00043319,-0.13075020,-0.01577399,-0.15077091,0.12379486,0.00033112,0
 .00045183,-0.00032974,-0.03092872,-0.05700225,-0.12559250,0.02455439,0
 .04628414,-0.00041792,-0.00042480,0.00054776,-0.14900700,-0.08882955,-
 0.38667401,0.16372058,0.10412361,0.40687757,-0.00300374,-0.00072817,-0
 .00013983,-0.08210600,0.01454682,0.01573507,0.02114567,-0.00596650,-0.
 01499704,0.08217841,0.00104854,0.00081394,0.00024081,-0.00383245,-0.03
 903307,0.01203630,0.00241921,0.00232161,-0.00792106,-0.00088028,0.0766
 6557,0.00241146,0.00127884,0.00050625,-0.00535115,-0.00199983,-0.08614
 106,0.01416125,-0.00111332,-0.01516933,0.01109699,0.00286917,0.0804917
 0,0.00159372,0.00032477,-0.00012469,-0.03037344,0.01559096,0.04497729,
 -0.00674899,0.00104390,0.00205119,-0.01189066,-0.01374676,-0.00947236,
 0.48676765,-0.00058794,-0.00058352,-0.00003723,0.01531665,0.01144915,-
 0.01346431,0.00062800,-0.00063842,0.00123301,-0.01202161,-0.04653275,-
 0.00204085,0.10304819,0.66462895,-0.00136488,-0.00066540,-0.00045499,0
 .04890437,-0.01668951,-0.03116759,0.00238734,0.00047711,0.00150361,-0.
 02421563,0.00598527,-0.01254741,-0.10764297,0.07612136,0.11161896,-0.0
 0028554,-0.00011142,0.00007980,0.00125438,0.00135225,0.00131830,-0.000
 72201,-0.00019755,0.00071107,-0.00467689,-0.00620122,-0.00478559,-0.36
 202553,-0.21977521,0.04594666,0.36044150,-0.00004399,0.00017332,-0.000
 02277,0.00403191,-0.00306045,-0.00499706,0.00046034,0.00050377,-0.0003
 9936,-0.00311155,0.00838349,0.00740665,-0.16339750,-0.17723094,0.00350
 944,0.20984862,0.19615131,0.00008713,0.00003030,0.00011627,0.00176220,
 -0.00291098,-0.00529539,0.00180462,-0.00009706,-0.00120303,0.00594285,
 0.01044115,0.00801459,0.04044460,0.00692821,-0.02685677,-0.04394057,-0
 .00873331,0.01712045,-0.00018464,0.00023923,0.00015035,-0.00416569,-0.
 00143153,0.00412760,-0.00006258,-0.00001462,0.00005384,0.00674777,0.01
 106998,-0.00626308,-0.07769554,0.11468119,0.03773301,0.00628850,-0.047
 93158,-0.00682331,0.06865899,0.00030431,0.00023971,-0.00003465,-0.0045
 7697,-0.00000705,0.00307614,0.00034125,0.00026832,-0.00034307,0.005835
 53,-0.00097756,-0.00257309,0.05954317,-0.45195903,-0.07254657,0.015106
 81,-0.02531159,-0.00535254,-0.07679585,0.47794063,0.00013722,0.0000677
 9,0.00016184,0.00235480,0.00224581,-0.00426218,0.00073532,-0.00084030,
 -0.00027934,-0.00137630,-0.01402088,0.00477297,0.02624494,-0.06854662,
 -0.03470466,0.00046415,0.00366978,0.00818104,-0.02919927,0.07761747,0.
 02591023,-0.00190436,0.00292830,-0.00072383,0.00116000,0.00044943,-0.0
 0004955,-0.00006623,-0.00059890,0.00024289,-0.00003495,-0.00059597,0.0
 0018632,0.00001175,0.00046507,-0.00002478,0.00017858,-0.00033238,-0.00
 002683,-0.00005753,-0.00014168,-0.00005017,0.08444671,0.00712606,-0.00
 035146,-0.00013629,0.00353039,-0.00151481,-0.00002482,-0.00026664,-0.0
 0003615,-0.00031368,-0.00145044,0.00044528,0.00140820,0.00079824,-0.00
 016864,-0.00075924,-0.00013917,-0.00013474,0.00006186,-0.00010771,0.00
 007931,0.00006653,0.12614643,0.42626549,-0.00173368,-0.00025739,-0.001
 61478,-0.00093281,0.00047218,0.00033265,0.00014734,-0.00018904,-0.0000
 5357,0.00055118,-0.00015317,-0.00084135,-0.00017483,-0.00005279,0.0005
 7154,-0.00005744,0.00009680,-0.00016203,-0.00001869,0.00001242,-0.0000
 9756,-0.04157861,0.06489500,0.67255627,0.00069748,-0.00031046,0.000661
 42,-0.00038173,-0.00022720,0.00015229,0.00006139,0.00018884,-0.0001288
 9,0.00009062,0.00025499,-0.00018160,-0.00001931,-0.00027870,0.00008431
 ,-0.00010620,0.00020857,-0.00003150,0.00002991,0.00008650,0.00001988,-
 0.04228107,-0.04617259,0.11393119,0.03244751,-0.00003559,-0.00010908,0
 .00071357,0.00028050,0.00009331,-0.00015600,-0.00000620,-0.00007889,0.
 00010809,0.00004307,-0.00016605,0.00021186,-0.00010548,0.00017636,-0.0
 0015900,0.00011719,-0.00007981,0.00005593,0.00003074,-0.00005614,0.000
 02469,-0.05006542,-0.10559126,0.16664980,0.04781869,0.09626799,0.00033
 716,0.00026032,0.00033411,0.00020015,-0.00026342,-0.00012362,-0.000024
 10,0.00013063,-0.00001469,-0.00020947,0.00016022,0.00030766,0.00005040
 ,-0.00004504,-0.00026409,0.00000535,0.00001215,0.00009792,0.00002498,0
 .00000674,0.00006294,0.08649843,0.10919319,-0.41249184,-0.10064877,-0.
 13104504,0.44490897,0.00073224,-0.00056053,-0.00043503,-0.00032584,-0.
 00029966,-0.00002033,0.00005193,0.00030525,-0.00010028,-0.00000483,0.0
 0024318,0.00003522,-0.00000913,-0.00019017,-0.00006025,-0.00005401,0.0
 0014485,0.00003998,0.00002985,0.00006538,0.00003188,-0.03648368,-0.084
 43153,-0.07152335,0.00839583,0.00470137,0.01336504,0.02666240,-0.00017
 165,-0.00041888,-0.00034578,0.00011315,0.00026899,0.00011195,0.0000735
 1,-0.00024824,0.00005195,0.00019004,-0.00021105,-0.00018101,-0.0000932
 6,0.00011958,0.00011699,0.00005658,-0.00005025,-0.00003048,-0.00000061
 ,-0.00003743,-0.00002269,-0.07347081,-0.28117433,-0.23701692,-0.002604
 96,0.00908308,0.02082439,0.07837317,0.27488349,-0.00027768,0.00009415,
 0.00059973,-0.00017052,0.00006080,-0.00022040,-0.00005198,0.00010062,0
 .00011842,-0.00006946,-0.00000044,0.00017605,-0.00000561,0.00005699,-0
 .00013724,0.00003620,-0.00004841,0.00006420,0.00001491,-0.00001648,0.0
 0003180,-0.04579339,-0.17966926,-0.24224933,-0.01225637,-0.04229422,-0
 .03313254,0.05774090,0.22112714,0.27163260,-0.23223142,-0.05229155,0.0
 0839792,-0.02934388,0.02367039,-0.00552980,-0.00115568,0.00083266,0.00
 241725,0.00556353,-0.00170579,-0.00856541,-0.00278190,0.00111328,0.004
 33279,0.00034365,0.00022937,-0.00034302,-0.00019250,-0.00053853,-0.000
 47889,0.00932304,-0.00099387,0.00024052,-0.00073793,0.00083916,-0.0003
 5696,-0.00073591,0.00083230,-0.00002815,0.28207128,-0.07103642,-0.0444
 9130,0.00676675,0.02406234,-0.00471486,0.00263836,0.00124118,-0.002240
 24,-0.00034790,-0.00316132,-0.00024215,0.00494754,0.00190106,0.0001694
 4,-0.00257354,0.00004861,-0.00063057,0.00016808,-0.00023885,0.00005913
 ,0.00019500,0.00184085,-0.03932375,0.01212716,0.00067589,-0.00529017,-
 0.00335844,0.00041200,-0.00215196,0.00456929,0.05377186,0.38972520,0.0
 1275985,0.00706021,-0.01317101,-0.00895543,0.00481123,0.00726631,0.001
 87252,-0.00083566,-0.00013470,0.00115763,0.00001245,-0.00433863,-0.000
 63589,-0.00000331,0.00226747,-0.00017048,0.00027748,-0.00027757,-0.000
 22782,0.00000085,-0.00028375,-0.00042108,0.01216070,0.00828049,0.00008
 536,-0.00160934,0.00018543,-0.00035922,0.00286859,-0.00295525,-0.00718
 381,-0.08649246,0.04919153,-0.01715614,-0.02826243,0.00649279,-0.00715
 271,0.00229030,-0.00061519,-0.00016841,0.00070576,-0.00014934,0.000622
 13,0.00042145,-0.00127319,-0.00040110,-0.00020977,0.00063978,-0.000116
 21,0.00023212,-0.00000674,0.00003710,0.00002075,-0.00002521,-0.0132877
 7,0.00291269,-0.00047972,0.00145051,-0.00318697,0.00105616,0.00139561,
 -0.00305022,0.00038508,-0.04254641,0.00580202,-0.00210818,0.06933937,-
 0.01029415,-0.00302456,0.00091390,-0.00445584,0.00128305,0.00032043,0.
 00062436,0.00028994,0.00000321,0.00173910,-0.00023242,-0.00138061,-0.0
 0092723,-0.00014668,0.00082463,0.00004035,0.00037875,-0.00008219,0.000
 20172,0.00003723,-0.00005026,-0.00694669,0.00078272,-0.00624222,0.0004
 8950,0.00579523,0.00393539,0.00130726,0.00017271,-0.00397671,-0.012147
 60,-0.28217762,0.06203438,0.02070717,0.27539222,0.00219225,0.00080832,
 0.00220351,0.00079149,-0.00029468,-0.00005782,-0.00024275,0.00040146,0
 .00007583,-0.00060455,-0.00000489,0.00095168,0.00012678,0.00021830,-0.
 00062791,0.00012198,-0.00016968,0.00016845,0.00000257,-0.00006192,0.00
 009408,0.00189236,-0.00617296,-0.02373199,-0.00162997,0.00716928,0.000
 01565,0.00114285,-0.00732664,0.00572829,0.00239669,0.06195072,-0.03903
 181,-0.00406566,-0.05678630,0.05236317,-0.00770277,-0.00502628,0.00103
 459,-0.19286516,0.10418404,-0.05062633,-0.00451807,0.00988108,-0.00473
 897,-0.01553945,0.01194145,0.00899233,0.00402062,-0.00244545,-0.007257
 86,-0.00061141,-0.00032642,0.00113609,0.00057321,0.00086956,0.00120688
 ,-0.00185782,-0.00522968,0.00119150,0.00058344,-0.00042887,-0.00010639
 ,0.00058172,-0.00033274,0.00031761,0.00150596,-0.01284467,0.00357596,0
 .01096127,0.00528814,-0.00098589,0.20217477,-0.00173491,0.00720012,-0.
 00185317,0.13798264,-0.12521734,0.03343762,-0.01453743,0.01012645,-0.0
 0714669,0.00442104,-0.00102808,-0.00822202,-0.00370134,0.00061077,0.00
 603259,-0.00019752,0.00088828,-0.00044946,0.00028336,-0.00022612,-0.00
 037340,-0.00008521,0.00131700,-0.00042497,0.00004191,-0.00009928,0.000
 23230,0.00011112,-0.00029139,-0.00004976,-0.01366497,-0.01492550,-0.00
 008278,0.00071868,-0.00052226,0.00047191,-0.10733143,0.12373267,0.0001
 0394,-0.00221843,0.00042355,-0.03130516,0.01071089,-0.09208459,-0.0332
 4072,0.02371066,-0.00558414,0.00727861,-0.00969087,0.02355194,0.004107
 57,-0.00034742,-0.00904134,0.00026592,-0.00059313,0.00000166,0.0004087
 4,0.00020512,0.00037833,-0.00008021,-0.00074168,-0.00020545,-0.0001116
 8,0.00028076,0.00004267,0.00012613,-0.00014051,0.00026490,0.00457833,-
 0.00036846,-0.01281763,0.00045742,0.00057442,0.00071762,0.04665304,-0.
 02205024,0.09393372,-0.12275551,-0.04179282,0.00810657,-0.00273560,0.0
 0185697,-0.00004275,0.00025053,-0.00015121,0.00043483,0.00144654,-0.00
 060056,-0.00145874,-0.00074672,0.00033866,0.00077905,0.00015629,0.0000
 0322,-0.00006700,0.00005598,-0.00016416,-0.00008795,0.00073748,-0.0022
 1428,0.00054732,-0.00021268,0.00009300,-0.00023180,-0.00022310,0.00018
 692,0.00015730,0.00743173,-0.00174089,0.00034666,-0.00217649,0.0053409
 7,-0.00135141,0.00381679,-0.00283441,0.00097377,0.49529851,-0.02655786
 ,-0.02834797,-0.00138518,-0.00154110,0.00131037,-0.00019264,0.00003236
 ,-0.00010077,0.00025273,0.00066062,-0.00035371,-0.00076993,-0.00032753
 ,0.00022693,0.00040158,0.00006488,-0.00002881,-0.00002487,-0.00003085,
 -0.00011259,-0.00004108,-0.00022954,-0.00040708,0.00009079,0.00007379,
 0.00003324,-0.00007597,0.00010585,0.00006258,0.00003107,-0.00110615,0.
 00651690,-0.00002017,0.00132503,0.00180878,-0.00014560,0.00234167,-0.0
 0197143,0.00077337,-0.04854654,0.10033051,0.00465392,-0.00159955,-0.03
 241921,0.00031663,-0.00036239,-0.00004382,-0.00000371,0.00009615,-0.00
 012403,-0.00006410,-0.00000351,0.00006656,0.00006990,-0.00000673,0.000
 01574,-0.00001986,-0.00000099,-0.00002160,-0.00003115,0.00001111,-0.00
 003560,0.00007287,0.00004011,-0.00002184,-0.00009720,-0.00002694,-0.00
 003887,0.00004649,-0.00001484,-0.00005555,0.00033369,-0.00001614,0.006
 99636,-0.00040072,-0.00000934,0.00116703,-0.00050653,0.00054437,0.0002
 6634,0.00842786,0.13182076,0.65534865,-0.01009122,0.00409610,0.0105267
 0,0.00046418,-0.00020123,-0.00001684,-0.00007376,-0.00000638,-0.000036
 15,-0.00028167,0.00009652,0.00024839,0.00014859,-0.00004815,-0.0001335
 1,-0.00003189,-0.00000659,0.00001287,-0.00002504,0.00002354,0.00001596
 ,0.00005675,0.00025698,-0.00005102,0.00000117,-0.00004501,0.00002595,-
 0.00001661,-0.00005152,0.00000505,0.00176228,-0.00058571,-0.00093278,-
 0.00038788,-0.00055472,-0.00009378,-0.00056892,0.00025176,-0.00017969,
 -0.19547533,0.08334596,0.19586011,0.18911164,-0.00749221,0.00233421,0.
 00602957,-0.00001546,-0.00009076,0.00006609,0.00002938,0.00004434,-0.0
 0001165,0.00002268,0.00003554,-0.00001786,-0.00001105,-0.00003526,0.00
 001786,-0.00000091,0.00002231,-0.00000757,0.00001665,0.00001912,-0.000
 00774,0.00031696,-0.00020428,-0.00003792,-0.00008877,0.00003180,0.0000
 2372,-0.00017515,-0.00000017,0.00003963,0.00034576,-0.00042480,-0.0009
 0814,-0.00024405,0.00029348,-0.00002982,-0.00006800,0.00004553,-0.0000
 8000,0.08170499,-0.06357533,-0.12866411,-0.07969080,0.05724268,0.00204
 127,-0.00016585,0.00424790,-0.00061924,0.00043658,-0.00012050,0.000028
 97,-0.00005698,0.00015127,0.00027685,-0.00010553,-0.00021013,-0.000169
 80,0.00006705,0.00008515,0.00004518,-0.00000417,0.00001017,0.00003571,
 -0.00003576,0.00001223,-0.00006790,-0.00043765,-0.00001550,0.00007071,
 0.00005564,-0.00000154,-0.00000598,0.00003315,0.00009753,-0.00119507,-
 0.00050306,-0.00035306,-0.00010439,0.00086147,-0.00025396,0.00093236,-
 0.00063728,0.00030776,0.14862065,-0.10128302,-0.28600705,-0.17841786,0
 .12046627,0.31028700,-0.00976120,-0.00096102,-0.01169315,0.00044784,-0
 .00021809,-0.00004330,-0.00007099,0.00002088,-0.00005609,-0.00025649,0
 .00006770,0.00021915,0.00015000,-0.00003401,-0.00010743,-0.00003323,-0
 .00000899,0.00000864,-0.00003778,0.00002039,0.00000676,0.00005911,0.00
 023512,-0.00005889,-0.00001894,-0.00005018,0.00001388,0.00000353,-0.00
 004989,-0.00000388,0.00172417,-0.00014794,0.00119669,-0.00041289,-0.00
 041233,0.00030701,-0.00055416,0.00027672,-0.00003599,-0.18486843,-0.00
 961059,-0.20865820,0.01540770,0.00534999,0.02852853,0.17822177,-0.0075
 8968,0.00035205,-0.00447965,0.00030604,-0.00030014,-0.00003368,-0.0000
 2520,0.00005453,-0.00003483,-0.00013902,0.00011143,0.00017627,0.000059
 86,-0.00008594,-0.00009359,-0.00001229,0.00002592,0.00000292,0.0000287
 3,0.00004404,0.00001589,0.00031958,0.00001668,0.00003027,-0.00015602,-
 0.00001032,0.00000888,-0.00011238,-0.00000673,-0.00002439,0.00081368,0
 .00014226,0.00072599,-0.00018254,-0.00013057,-0.00002749,-0.00047238,0
 .00036057,-0.00002448,0.00852014,-0.01539163,-0.00180795,-0.00688075,0
 .00426158,-0.01869084,0.00552224,0.01055628,0.00093490,0.00198107,0.00
 589226,0.00064270,-0.00037068,-0.00007997,-0.00009059,0.00001434,-0.00
 003763,-0.00036280,0.00015499,0.00040849,0.00015347,-0.00008061,-0.000
 26049,-0.00002067,-0.00000341,0.00004164,0.00001162,0.00003424,0.00005
 761,-0.00007652,0.00043000,-0.00025570,0.00008082,0.00002092,0.0001118
 5,-0.00002406,-0.00005528,0.00003678,0.00098391,0.00029710,-0.00082417
 ,0.00019711,-0.00094019,0.00021818,-0.00081839,0.00057098,-0.00015533,
 -0.16515435,-0.02943184,-0.34509310,-0.02683340,0.00312168,-0.02823728
 ,0.19037626,0.02425670,0.36817685\\-0.01029198,-0.01116008,0.00217978,
 0.01015026,0.02066564,-0.00489332,0.00030982,-0.00692012,0.00848816,-0
 .01118647,-0.00570621,-0.00082360,0.01266641,-0.00388393,0.01158712,0.
 00146690,0.01012426,-0.00572741,-0.00692882,-0.00783353,-0.00591610,0.
 00730233,0.00315365,-0.00040036,-0.00284493,-0.00291658,-0.01176829,-0
 .00334595,0.00271388,0.01153015,0.01477058,0.00667737,-0.00030009,0.00
 476995,0.00043293,-0.00044669,-0.00684414,-0.00700018,-0.00297443,-0.0
 0547481,0.01711791,-0.00387807,-0.00234369,-0.00588890,0.00984245,-0.0
 0217549,-0.00957612,-0.00649930\\\@


 ERROR IS THE FORCE THAT WELDS MEN TOGETHER....
 TRUTH IS COMMUNICATED TO MEN ONLY BY DEEDS OF TRUTH.
           TOLSTOI,MY RELIGION
 Job cpu time:       0 days  0 hours 28 minutes 46.0 seconds.
 Elapsed time:       0 days  0 hours  1 minutes  2.5 seconds.
 File lengths (MBytes):  RWF=   1771 Int=      0 D2E=      0 Chk=      3 Scr=      1
 Normal termination of Gaussian 16 at Wed May 11 21:32:48 2022.
