 Entering Gaussian System, Link 0=g16
 Initial command:
 /cm/shared/apps/gaussian/intel/EM64T/SSE4_2-enabled/binary//g16/l1.exe "/scratch/florez/25750/Gau-3334.inp" -scrdir="/scratch/florez/25750/"
 Entering Link 1 = /cm/shared/apps/gaussian/intel/EM64T/SSE4_2-enabled/binary//g16/l1.exe PID=      3337.
  
 Copyright (c) 1988,1990,1992,1993,1995,1998,2003,2009,2016,
            Gaussian, Inc.  All Rights Reserved.
  
 This is part of the Gaussian(R) 16 program.  It is based on
 the Gaussian(R) 09 system (copyright 2009, Gaussian, Inc.),
 the Gaussian(R) 03 system (copyright 2003, Gaussian, Inc.),
 the Gaussian(R) 98 system (copyright 1998, Gaussian, Inc.),
 the Gaussian(R) 94 system (copyright 1995, Gaussian, Inc.),
 the Gaussian 92(TM) system (copyright 1992, Gaussian, Inc.),
 the Gaussian 90(TM) system (copyright 1990, Gaussian, Inc.),
 the Gaussian 88(TM) system (copyright 1988, Gaussian, Inc.),
 the Gaussian 86(TM) system (copyright 1986, Carnegie Mellon
 University), and the Gaussian 82(TM) system (copyright 1983,
 Carnegie Mellon University). Gaussian is a federally registered
 trademark of Gaussian, Inc.
  
 This software contains proprietary and confidential information,
 including trade secrets, belonging to Gaussian, Inc.
  
 This software is provided under written license and may be
 used, copied, transmitted, or stored only in accord with that
 written license.
  
 The following legend is applicable only to US Government
 contracts under FAR:
  
                    RESTRICTED RIGHTS LEGEND
  
 Use, reproduction and disclosure by the US Government is
 subject to restrictions as set forth in subparagraphs (a)
 and (c) of the Commercial Computer Software - Restricted
 Rights clause in FAR 52.227-19.
  
 Gaussian, Inc.
 340 Quinnipiac St., Bldg. 40, Wallingford CT 06492
  
  
 ---------------------------------------------------------------
 Warning -- This program may not be used in any manner that
 competes with the business of Gaussian, Inc. or will provide
 assistance to any competitor of Gaussian, Inc.  The licensee
 of this program is prohibited from giving any competitor of
 Gaussian, Inc. access to this program.  By using this program,
 the user acknowledges that Gaussian, Inc. is engaged in the
 business of creating and licensing software in the field of
 computational chemistry and represents and warrants to the
 licensee that it is not a competitor of Gaussian, Inc. and that
 it will not use this program in any manner prohibited above.
 ---------------------------------------------------------------
  

 Cite this work as:
 Gaussian 16, Revision A.03,
 M. J. Frisch, G. W. Trucks, H. B. Schlegel, G. E. Scuseria, 
 M. A. Robb, J. R. Cheeseman, G. Scalmani, V. Barone, 
 G. A. Petersson, H. Nakatsuji, X. Li, M. Caricato, A. V. Marenich, 
 J. Bloino, B. G. Janesko, R. Gomperts, B. Mennucci, H. P. Hratchian, 
 J. V. Ortiz, A. F. Izmaylov, J. L. Sonnenberg, D. Williams-Young, 
 F. Ding, F. Lipparini, F. Egidi, J. Goings, B. Peng, A. Petrone, 
 T. Henderson, D. Ranasinghe, V. G. Zakrzewski, J. Gao, N. Rega, 
 G. Zheng, W. Liang, M. Hada, M. Ehara, K. Toyota, R. Fukuda, 
 J. Hasegawa, M. Ishida, T. Nakajima, Y. Honda, O. Kitao, H. Nakai, 
 T. Vreven, K. Throssell, J. A. Montgomery, Jr., J. E. Peralta, 
 F. Ogliaro, M. J. Bearpark, J. J. Heyd, E. N. Brothers, K. N. Kudin, 
 V. N. Staroverov, T. A. Keith, R. Kobayashi, J. Normand, 
 K. Raghavachari, A. P. Rendell, J. C. Burant, S. S. Iyengar, 
 J. Tomasi, M. Cossi, J. M. Millam, M. Klene, C. Adamo, R. Cammi, 
 J. W. Ochterski, R. L. Martin, K. Morokuma, O. Farkas, 
 J. B. Foresman, and D. J. Fox, Gaussian, Inc., Wallingford CT, 2016.
 
 ******************************************
 Gaussian 16:  ES64L-G16RevA.03 25-Dec-2016
                11-May-2022 
 ******************************************
 %chk=w5s7.chk
 %nproc=28
 Will use up to   28 processors via shared memory.
 %mem=500gb
 ------------------------
 #p MP2(full) SDDAll freq
 ------------------------
 1/10=4,30=1,38=1/1,3;
 2/12=2,17=6,18=5,40=1/2;
 3/5=17,6=6,11=9,25=1,30=1,71=2,140=1/1,2,3;
 4//1;
 5/5=2,38=5,98=1/2;
 8/6=3,8=1,10=90,19=11/1;
 9/15=3,16=-3/6;
 11/6=1,8=1,15=11,17=11,24=-1,27=1,28=-2,29=300,32=6,42=3/1,2,10;
 10/6=2,21=1/2;
 8/6=4,8=1,10=90,19=11/11,4;
 10/5=1,20=4/2;
 11/12=2,14=11,16=1,28=-2,42=3/2,10,12;
 6/7=2,8=2,9=2,10=2/1;
 7/8=1,10=1,12=2,25=1,44=2/1,2,3,16;
 1/10=4,30=1/3;
 99//99;
 Leave Link    1 at Wed May 11 21:32:48 2022, MaxMem= 67108864000 cpu:               1.1 elap:               0.0
 (Enter /cm/shared/apps/gaussian/intel/EM64T/SSE4_2-enabled/binary//g16/l101.exe)
 ----------------------------------------------------------------------
 file 'w5s7.log' Now we use Def2-QZVPPD, but it was opt at: ---' #p ZOR
 A-SR+SO PBE QZ4P'---
 ----------------------------------------------------------------------
 Symbolic Z-matrix:
 Charge =  2 Multiplicity = 1
 Hg(Fragment=1)        0.64066   0.18861   0.47331 
 O(Fragment=2)        -0.79311   1.09701  -1.22635 
 H(Fragment=2)        -1.75671   1.01226  -1.09886 
 H(Fragment=2)        -0.65075   1.99644  -1.57629 
 O(Fragment=2)         0.86413  -1.4727   -1.1557 
 H(Fragment=2)         1.69727  -1.96949  -1.26487 
 H(Fragment=2)         0.59719  -1.18532  -2.05022 
 O(Fragment=2)         4.3586    1.03853   1.6681 
 H(Fragment=2)         4.73728   0.7498    2.51881 
 H(Fragment=2)         4.95244   1.72894   1.31895 
 O(Fragment=2)         1.95825   1.52296   1.44591 
 H(Fragment=2)         3.02541   1.29824   1.5984 
 H(Fragment=2)         1.58526   1.92567   2.2522 
 O(Fragment=2)        -1.1942   -1.13774   0.94023 
 H(Fragment=2)        -1.53835  -1.21823   1.85056 
 H(Fragment=2)        -1.13799  -2.04512   0.58352 
 
 ITRead=  0  0  0  0  0  0  0  0  0  0  0  0  0  0  0  0
 MicOpt= -1 -1 -1 -1 -1 -1 -1 -1 -1 -1 -1 -1 -1 -1 -1 -1
 NAtoms=     16 NQM=       16 NQMF=       0 NMMI=      0 NMMIF=      0
                NMic=       0 NMicF=      0.
                    Isotopes and Nuclear Properties:
 (Nuclear quadrupole moments (NQMom) in fm**2, nuclear magnetic moments (NMagM)
  in nuclear magnetons)

  Atom         1           2           3           4           5           6           7           8           9          10
 IAtWgt=         202          16           1           1          16           1           1          16           1           1
 AtmWgt= 201.9706000  15.9949146   1.0078250   1.0078250  15.9949146   1.0078250   1.0078250  15.9949146   1.0078250   1.0078250
 NucSpn=           0           0           1           1           0           1           1           0           1           1
 AtZEff=  -0.0000000  -0.0000000  -0.0000000  -0.0000000  -0.0000000  -0.0000000  -0.0000000  -0.0000000  -0.0000000  -0.0000000
 NQMom=    0.0000000   0.0000000   0.0000000   0.0000000   0.0000000   0.0000000   0.0000000   0.0000000   0.0000000   0.0000000
 NMagM=    0.0000000   0.0000000   2.7928460   2.7928460   0.0000000   2.7928460   2.7928460   0.0000000   2.7928460   2.7928460
 AtZNuc=  80.0000000   8.0000000   1.0000000   1.0000000   8.0000000   1.0000000   1.0000000   8.0000000   1.0000000   1.0000000

  Atom        11          12          13          14          15          16
 IAtWgt=          16           1           1          16           1           1
 AtmWgt=  15.9949146   1.0078250   1.0078250  15.9949146   1.0078250   1.0078250
 NucSpn=           0           1           1           0           1           1
 AtZEff=  -0.0000000  -0.0000000  -0.0000000  -0.0000000  -0.0000000  -0.0000000
 NQMom=    0.0000000   0.0000000   0.0000000   0.0000000   0.0000000   0.0000000
 NMagM=    0.0000000   2.7928460   2.7928460   0.0000000   2.7928460   2.7928460
 AtZNuc=   8.0000000   1.0000000   1.0000000   8.0000000   1.0000000   1.0000000
 Leave Link  101 at Wed May 11 21:32:48 2022, MaxMem= 67108864000 cpu:               2.1 elap:               0.1
 (Enter /cm/shared/apps/gaussian/intel/EM64T/SSE4_2-enabled/binary//g16/l103.exe)

 GradGradGradGradGradGradGradGradGradGradGradGradGradGradGradGradGradGrad
 Berny optimization.
 Initialization pass.
 Trust Radius=3.00D-01 FncErr=1.00D-07 GrdErr=1.00D-07 EigMax=2.50D+02 EigMin=1.00D-04
 Number of steps in this run=      2 maximum allowed number of steps=      2.
 GradGradGradGradGradGradGradGradGradGradGradGradGradGradGradGradGradGrad

 Leave Link  103 at Wed May 11 21:32:48 2022, MaxMem= 67108864000 cpu:               1.3 elap:               0.1
 (Enter /cm/shared/apps/gaussian/intel/EM64T/SSE4_2-enabled/binary//g16/l202.exe)
                          Input orientation:                          
 ---------------------------------------------------------------------
 Center     Atomic      Atomic             Coordinates (Angstroms)
 Number     Number       Type             X           Y           Z
 ---------------------------------------------------------------------
      1         80           0        0.640659    0.188613    0.473310
      2          8           0       -0.793106    1.097007   -1.226346
      3          1           0       -1.756707    1.012256   -1.098857
      4          1           0       -0.650753    1.996444   -1.576287
      5          8           0        0.864126   -1.472702   -1.155697
      6          1           0        1.697266   -1.969490   -1.264865
      7          1           0        0.597192   -1.185315   -2.050221
      8          8           0        4.358604    1.038530    1.668101
      9          1           0        4.737275    0.749800    2.518811
     10          1           0        4.952437    1.728936    1.318954
     11          8           0        1.958251    1.522955    1.445905
     12          1           0        3.025410    1.298242    1.598399
     13          1           0        1.585258    1.925674    2.252200
     14          8           0       -1.194198   -1.137742    0.940229
     15          1           0       -1.538350   -1.218227    1.850563
     16          1           0       -1.137987   -2.045120    0.583518
 ---------------------------------------------------------------------
                    Distance matrix (angstroms):
                    1          2          3          4          5
     1  Hg   0.000000
     2  O    2.402018   0.000000
     3  H    2.982861   0.975686   0.000000
     4  H    3.022722   0.975556   1.555538   0.000000
     5  O    2.337428   3.058564   3.612065   3.808770   0.000000
     6  H    2.965650   3.950549   4.565994   4.619395   0.976134
     7  H    2.873635   2.796550   3.357864   3.450445   0.976739
     8  O    3.996624   5.909430   6.712211   6.044610   5.146989
     9  H    4.613162   6.688189   7.438293   6.881482   5.782976
    10  H    4.656086   6.315786   7.167430   6.312663   5.752275
    11  O    2.112453   3.859057   4.531836   4.020540   4.115751
    12  H    2.860793   4.754024   5.497783   4.907167   4.464787
    13  H    2.659718   4.294600   4.820025   4.434193   4.866493
    14  O    2.311694   3.138316   3.016087   4.056021   2.956654
    15  H    2.936683   3.922125   3.704296   4.781761   3.856715
    16  H    2.857497   3.642460   3.544115   4.608296   2.713114
                    6          7          8          9         10
     6  H    0.000000
     7  H    1.562651   0.000000
     8  O    4.973248   5.737563   0.000000
     9  H    5.563488   6.462276   0.974918   0.000000
    10  H    5.563328   6.229957   0.975296   1.563540   0.000000
    11  O    4.428720   4.627105   2.458807   3.077640   3.003946
    12  H    4.543162   5.037532   1.360042   2.019512   1.994247
    13  H    5.249247   5.400496   2.969789   3.374755   3.499650
    14  O    3.730256   3.486278   6.008292   6.421613   6.792820
    15  H    4.554064   4.447217   6.316669   6.610836   7.148335
    16  H    3.385395   3.269051   6.395133   6.787904   7.202613
                   11         12         13         14         15
    11  O    0.000000
    12  H    1.101172   0.000000
    13  H    0.975407   1.701518   0.000000
    14  O    4.156074   4.916533   4.339489   0.000000
    15  H    4.461395   5.217673   4.449983   0.976538   0.000000
    16  H    4.802245   5.435249   5.095858   0.976595   1.565070
                   16
    16  H    0.000000
 Stoichiometry    H10HgO5(2+)
 Framework group  C1[X(H10HgO5)]
 Deg. of freedom    42
 Full point group                 C1      NOp   1
 Largest Abelian subgroup         C1      NOp   1
 Largest concise Abelian subgroup C1      NOp   1
                         Standard orientation:                         
 ---------------------------------------------------------------------
 Center     Atomic      Atomic             Coordinates (Angstroms)
 Number     Number       Type             X           Y           Z
 ---------------------------------------------------------------------
      1         80           0        0.123662   -0.069453    0.091549
      2          8           0        1.730438   -1.143506   -1.334766
      3          1           0        2.536864   -1.502251   -0.918901
      4          1           0        1.453614   -1.808844   -1.992340
      5          8           0        1.110824    1.816103   -0.874763
      6          1           0        0.598166    2.629911   -1.041305
      7          1           0        1.598803    1.626063   -1.699250
      8          8           0       -3.820488    0.518618   -0.174627
      9          1           0       -4.386943    0.765877    0.579333
     10          1           0       -4.418217    0.229225   -0.888893
     11          8           0       -1.825231   -0.882903    0.142267
     12          1           0       -2.730368   -0.262183    0.052758
     13          1           0       -1.951933   -1.556560    0.836205
     14          8           0        1.949196    0.232704    1.477211
     15          1           0        1.913602   -0.022254    2.419207
     16          1           0        2.335510    1.129124    1.446700
 ---------------------------------------------------------------------
 Rotational constants (GHZ):           2.4224105           0.8625232           0.8408283
 Leave Link  202 at Wed May 11 21:32:48 2022, MaxMem= 67108864000 cpu:               0.4 elap:               0.0
 (Enter /cm/shared/apps/gaussian/intel/EM64T/SSE4_2-enabled/binary//g16/l301.exe)
 Standard basis: SDDAll (6D, 10F)
 Ernie: Thresh=  0.10000D-02 Tol=  0.10000D-05 Strict=F.
 There are   114 symmetry adapted cartesian basis functions of A   symmetry.
 There are   114 symmetry adapted basis functions of A   symmetry.
   114 basis functions,   200 primitive gaussians,   114 cartesian basis functions
    29 alpha electrons       29 beta electrons
       nuclear repulsion energy       281.1948644073 Hartrees.
 IExCor=    0 DFT=F Ex=HF Corr=None ExCW=0 ScaHFX=  1.000000
 ScaDFX=  1.000000  1.000000  1.000000  1.000000 ScalE2=  1.000000  1.000000
 IRadAn=      5 IRanWt=     -1 IRanGd=            0 ICorTp=0 IEmpDi=  4
 NAtoms=   16 NActive=   16 NUniq=   16 SFac= 1.00D+00 NAtFMM=   60 NAOKFM=F Big=F
 Integral buffers will be    131072 words long.
 Raffenetti 1 integral format.
 Two-electron integral symmetry is turned on.
 Leave Link  301 at Wed May 11 21:32:48 2022, MaxMem= 67108864000 cpu:               1.6 elap:               0.1
 (Enter /cm/shared/apps/gaussian/intel/EM64T/SSE4_2-enabled/binary//g16/l302.exe)
 NPDir=0 NMtPBC=     1 NCelOv=     1 NCel=       1 NClECP=     1 NCelD=      1
         NCelK=      1 NCelE2=     1 NClLst=     1 CellRange=     0.0.
 One-electron integrals computed using PRISM.
 One-electron integral symmetry used in STVInt
   1 Symmetry operations used in ECPInt.
 ECPInt:  NShTT=    1770 NPrTT=    5742 LenC2=    1754 LenP2D=    4626.
 LDataN:  DoStor=T MaxTD1= 7 Len=  274
 NBasis=   114 RedAO= T EigKep=  3.87D-04  NBF=   114
 NBsUse=   114 1.00D-06 EigRej= -1.00D+00 NBFU=   114
 Leave Link  302 at Wed May 11 21:32:49 2022, MaxMem= 67108864000 cpu:               6.7 elap:               0.3
 (Enter /cm/shared/apps/gaussian/intel/EM64T/SSE4_2-enabled/binary//g16/l303.exe)
 DipDrv:  MaxL=1.
 Leave Link  303 at Wed May 11 21:32:49 2022, MaxMem= 67108864000 cpu:               1.0 elap:               0.1
 (Enter /cm/shared/apps/gaussian/intel/EM64T/SSE4_2-enabled/binary//g16/l401.exe)
 ExpMin= 2.00D-02 ExpMax= 4.71D+01 ExpMxC= 4.71D+01 IAcc=3 IRadAn=         5 AccDes= 0.00D+00
 Harris functional with IExCor=  205 and IRadAn=       5 diagonalized for initial guess.
 HarFok:  IExCor=  205 AccDes= 0.00D+00 IRadAn=         5 IDoV= 1 UseB2=F ITyADJ=14
 ICtDFT=  3500011 ScaDFX=  1.000000  1.000000  1.000000  1.000000
 Defaulting to unpruned grid for atomic number  80.
 FoFCou: FMM=F IPFlag=           0 FMFlag=      100000 FMFlg1=           0
         NFxFlg=           0 DoJE=T BraDBF=F KetDBF=T FulRan=T
         wScrn=  0.000000 ICntrl=       500 IOpCl=  0 I1Cent=   200000004 NGrid=           0
         NMat0=    1 NMatS0=      1 NMatT0=    0 NMatD0=    1 NMtDS0=    0 NMtDT0=    0
 Petite list used in FoFCou.
 Harris En= -239.796160049049    
 JPrj=0 DoOrth=F DoCkMO=F.
 Leave Link  401 at Wed May 11 21:32:49 2022, MaxMem= 67108864000 cpu:               8.9 elap:               0.4
 (Enter /cm/shared/apps/gaussian/intel/EM64T/SSE4_2-enabled/binary//g16/l502.exe)
 Integral symmetry usage will be decided dynamically.
 Closed shell SCF:
 Using DIIS extrapolation, IDIIS=  1040.
 NGot= 67108864000 LenX= 67108833291 LenY= 67108819854
 Requested convergence on RMS density matrix=1.00D-08 within 128 cycles.
 Requested convergence on MAX density matrix=1.00D-06.
 Requested convergence on             energy=1.00D-06.
 No special actions if energy rises.
 Fock matrices will be formed incrementally for  20 cycles.

 Cycle   1  Pass 0  IDiag  1:
 FoFJK:  IHMeth= 1 ICntrl=       0 DoSepK=F KAlg= 0 I1Cent=           0 FoldK=F
 IRaf= 970000000 NMat=       1 IRICut=       1 DoRegI=T DoRafI=F ISym2E= 0 IDoP0=0 IntGTp=1.
 FoFCou: FMM=F IPFlag=           0 FMFlag=      100000 FMFlg1=           0
         NFxFlg=           0 DoJE=F BraDBF=F KetDBF=F FulRan=T
         wScrn=  0.000000 ICntrl=         0 IOpCl=  0 I1Cent=           0 NGrid=           0
         NMat0=    1 NMatS0=      1 NMatT0=    0 NMatD0=    1 NMtDS0=    0 NMtDT0=    0
 Symmetry not used in FoFCou.
 E= -236.107115849905    
 DIIS: error= 3.62D-02 at cycle   1 NSaved=   1.
 NSaved= 1 IEnMin= 1 EnMin= -236.107115849905     IErMin= 1 ErrMin= 3.62D-02
 ErrMax= 3.62D-02  0.00D+00 EMaxC= 1.00D-01 BMatC= 5.19D-01 BMatP= 5.19D-01
 IDIUse=3 WtCom= 6.38D-01 WtEn= 3.62D-01
 Coeff-Com:  0.100D+01
 Coeff-En:   0.100D+01
 Coeff:      0.100D+01
 Gap=     0.750 Goal=   None    Shift=    0.000
 GapD=    0.750 DampG=2.000 DampE=0.250 DampFc=0.5000 IDamp=-1.
 Damping current iteration by 5.00D-01
 RMSDP=7.76D-03 MaxDP=1.91D-01              OVMax= 1.70D-01

 Cycle   2  Pass 0  IDiag  1:
 RMSU=  3.87D-03    CP:  1.01D+00
 E= -236.324090988407     Delta-E=       -0.216975138502 Rises=F Damp=T
 DIIS: error= 9.94D-03 at cycle   2 NSaved=   2.
 NSaved= 2 IEnMin= 2 EnMin= -236.324090988407     IErMin= 2 ErrMin= 9.94D-03
 ErrMax= 9.94D-03  0.00D+00 EMaxC= 1.00D-01 BMatC= 3.49D-02 BMatP= 5.19D-01
 IDIUse=3 WtCom= 9.01D-01 WtEn= 9.94D-02
 Coeff-Com: -0.254D+00 0.125D+01
 Coeff-En:   0.000D+00 0.100D+01
 Coeff:     -0.229D+00 0.123D+01
 Gap=     0.547 Goal=   None    Shift=    0.000
 RMSDP=2.43D-03 MaxDP=5.22D-02 DE=-2.17D-01 OVMax= 6.23D-02

 Cycle   3  Pass 0  IDiag  1:
 RMSU=  1.95D-03    CP:  1.00D+00  1.37D+00
 E= -236.509101539951     Delta-E=       -0.185010551545 Rises=F Damp=F
 DIIS: error= 4.07D-03 at cycle   3 NSaved=   3.
 NSaved= 3 IEnMin= 3 EnMin= -236.509101539951     IErMin= 3 ErrMin= 4.07D-03
 ErrMax= 4.07D-03  0.00D+00 EMaxC= 1.00D-01 BMatC= 2.18D-03 BMatP= 3.49D-02
 IDIUse=3 WtCom= 9.59D-01 WtEn= 4.07D-02
 Coeff-Com:  0.390D-01-0.162D+00 0.112D+01
 Coeff-En:   0.000D+00 0.000D+00 0.100D+01
 Coeff:      0.374D-01-0.155D+00 0.112D+01
 Gap=     0.543 Goal=   None    Shift=    0.000
 RMSDP=8.29D-04 MaxDP=2.27D-02 DE=-1.85D-01 OVMax= 1.72D-02

 Cycle   4  Pass 0  IDiag  1:
 RMSU=  4.82D-04    CP:  9.97D-01  1.33D+00  1.31D+00
 E= -236.511623183370     Delta-E=       -0.002521643419 Rises=F Damp=F
 DIIS: error= 1.12D-03 at cycle   4 NSaved=   4.
 NSaved= 4 IEnMin= 4 EnMin= -236.511623183370     IErMin= 4 ErrMin= 1.12D-03
 ErrMax= 1.12D-03  0.00D+00 EMaxC= 1.00D-01 BMatC= 3.50D-04 BMatP= 2.18D-03
 IDIUse=3 WtCom= 9.89D-01 WtEn= 1.12D-02
 Coeff-Com:  0.265D-01-0.124D+00 0.327D+00 0.770D+00
 Coeff-En:   0.000D+00 0.000D+00 0.000D+00 0.100D+01
 Coeff:      0.262D-01-0.122D+00 0.323D+00 0.773D+00
 Gap=     0.543 Goal=   None    Shift=    0.000
 RMSDP=2.34D-04 MaxDP=4.66D-03 DE=-2.52D-03 OVMax= 5.77D-03

 Cycle   5  Pass 0  IDiag  1:
 RMSU=  1.62D-04    CP:  9.97D-01  1.35D+00  1.39D+00  1.02D+00
 E= -236.512082144430     Delta-E=       -0.000458961060 Rises=F Damp=F
 DIIS: error= 3.30D-04 at cycle   5 NSaved=   5.
 NSaved= 5 IEnMin= 5 EnMin= -236.512082144430     IErMin= 5 ErrMin= 3.30D-04
 ErrMax= 3.30D-04  0.00D+00 EMaxC= 1.00D-01 BMatC= 2.19D-05 BMatP= 3.50D-04
 IDIUse=3 WtCom= 9.97D-01 WtEn= 3.30D-03
 Coeff-Com: -0.139D-01 0.506D-01-0.158D+00-0.243D+00 0.136D+01
 Coeff-En:   0.000D+00 0.000D+00 0.000D+00 0.000D+00 0.100D+01
 Coeff:     -0.138D-01 0.504D-01-0.157D+00-0.242D+00 0.136D+01
 Gap=     0.541 Goal=   None    Shift=    0.000
 RMSDP=1.41D-04 MaxDP=2.81D-03 DE=-4.59D-04 OVMax= 3.51D-03

 Cycle   6  Pass 0  IDiag  1:
 RMSU=  5.20D-05    CP:  9.96D-01  1.35D+00  1.43D+00  1.16D+00  1.50D+00
 E= -236.512157076087     Delta-E=       -0.000074931657 Rises=F Damp=F
 DIIS: error= 1.21D-04 at cycle   6 NSaved=   6.
 NSaved= 6 IEnMin= 6 EnMin= -236.512157076087     IErMin= 6 ErrMin= 1.21D-04
 ErrMax= 1.21D-04  0.00D+00 EMaxC= 1.00D-01 BMatC= 3.53D-06 BMatP= 2.19D-05
 IDIUse=3 WtCom= 9.99D-01 WtEn= 1.21D-03
 Coeff-Com: -0.504D-02 0.217D-01-0.731D-01-0.115D+00 0.342D+00 0.830D+00
 Coeff-En:   0.000D+00 0.000D+00 0.000D+00 0.000D+00 0.000D+00 0.100D+01
 Coeff:     -0.504D-02 0.216D-01-0.730D-01-0.115D+00 0.341D+00 0.830D+00
 Gap=     0.541 Goal=   None    Shift=    0.000
 RMSDP=3.81D-05 MaxDP=7.56D-04 DE=-7.49D-05 OVMax= 1.03D-03

 Cycle   7  Pass 0  IDiag  1:
 RMSU=  1.44D-05    CP:  9.96D-01  1.35D+00  1.44D+00  1.19D+00  1.62D+00
                    CP:  1.29D+00
 E= -236.512163753527     Delta-E=       -0.000006677440 Rises=F Damp=F
 DIIS: error= 3.63D-05 at cycle   7 NSaved=   7.
 NSaved= 7 IEnMin= 7 EnMin= -236.512163753527     IErMin= 7 ErrMin= 3.63D-05
 ErrMax= 3.63D-05  0.00D+00 EMaxC= 1.00D-01 BMatC= 4.49D-07 BMatP= 3.53D-06
 IDIUse=1 WtCom= 1.00D+00 WtEn= 0.00D+00
 Coeff-Com:  0.262D-02-0.786D-02 0.223D-01 0.440D-01-0.245D+00 0.239D-01
 Coeff-Com:  0.116D+01
 Coeff:      0.262D-02-0.786D-02 0.223D-01 0.440D-01-0.245D+00 0.239D-01
 Coeff:      0.116D+01
 Gap=     0.541 Goal=   None    Shift=    0.000
 RMSDP=1.97D-05 MaxDP=4.94D-04 DE=-6.68D-06 OVMax= 5.19D-04

 Cycle   8  Pass 0  IDiag  1:
 RMSU=  4.93D-06    CP:  9.96D-01  1.35D+00  1.45D+00  1.21D+00  1.68D+00
                    CP:  1.52D+00  1.32D+00
 E= -236.512164847460     Delta-E=       -0.000001093934 Rises=F Damp=F
 DIIS: error= 1.01D-05 at cycle   8 NSaved=   8.
 NSaved= 8 IEnMin= 8 EnMin= -236.512164847460     IErMin= 8 ErrMin= 1.01D-05
 ErrMax= 1.01D-05  0.00D+00 EMaxC= 1.00D-01 BMatC= 1.54D-08 BMatP= 4.49D-07
 IDIUse=1 WtCom= 1.00D+00 WtEn= 0.00D+00
 Coeff-Com: -0.285D-03 0.495D-03 0.199D-03-0.410D-02 0.292D-01-0.269D-01
 Coeff-Com: -0.217D+00 0.122D+01
 Coeff:     -0.285D-03 0.495D-03 0.199D-03-0.410D-02 0.292D-01-0.269D-01
 Coeff:     -0.217D+00 0.122D+01
 Gap=     0.541 Goal=   None    Shift=    0.000
 RMSDP=3.02D-06 MaxDP=8.07D-05 DE=-1.09D-06 OVMax= 7.84D-05

 Initial convergence to 1.0D-05 achieved.  Increase integral accuracy.
 Cycle   9  Pass 1  IDiag  1:
 E= -236.512164887749     Delta-E=       -0.000000040289 Rises=F Damp=F
 DIIS: error= 2.77D-06 at cycle   1 NSaved=   1.
 NSaved= 1 IEnMin= 1 EnMin= -236.512164887749     IErMin= 1 ErrMin= 2.77D-06
 ErrMax= 2.77D-06  0.00D+00 EMaxC= 1.00D-01 BMatC= 2.56D-09 BMatP= 2.56D-09
 IDIUse=1 WtCom= 1.00D+00 WtEn= 0.00D+00
 Coeff-Com:  0.100D+01
 Coeff:      0.100D+01
 Gap=     0.541 Goal=   None    Shift=    0.000
 RMSDP=3.02D-06 MaxDP=8.07D-05 DE=-4.03D-08 OVMax= 1.24D-05

 Cycle  10  Pass 1  IDiag  1:
 RMSU=  5.91D-07    CP:  1.00D+00
 E= -236.512164890857     Delta-E=       -0.000000003108 Rises=F Damp=F
 DIIS: error= 1.58D-06 at cycle   2 NSaved=   2.
 NSaved= 2 IEnMin= 2 EnMin= -236.512164890857     IErMin= 2 ErrMin= 1.58D-06
 ErrMax= 1.58D-06  0.00D+00 EMaxC= 1.00D-01 BMatC= 7.74D-10 BMatP= 2.56D-09
 IDIUse=1 WtCom= 1.00D+00 WtEn= 0.00D+00
 Coeff-Com:  0.304D+00 0.696D+00
 Coeff:      0.304D+00 0.696D+00
 Gap=     0.541 Goal=   None    Shift=    0.000
 RMSDP=2.42D-07 MaxDP=4.94D-06 DE=-3.11D-09 OVMax= 8.33D-06

 Cycle  11  Pass 1  IDiag  1:
 RMSU=  2.27D-07    CP:  1.00D+00  1.14D+00
 E= -236.512164891734     Delta-E=       -0.000000000876 Rises=F Damp=F
 DIIS: error= 5.90D-07 at cycle   3 NSaved=   3.
 NSaved= 3 IEnMin= 3 EnMin= -236.512164891734     IErMin= 3 ErrMin= 5.90D-07
 ErrMax= 5.90D-07  0.00D+00 EMaxC= 1.00D-01 BMatC= 9.55D-11 BMatP= 7.74D-10
 IDIUse=1 WtCom= 1.00D+00 WtEn= 0.00D+00
 Coeff-Com: -0.328D+00-0.293D+00 0.162D+01
 Coeff:     -0.328D+00-0.293D+00 0.162D+01
 Gap=     0.541 Goal=   None    Shift=    0.000
 RMSDP=3.07D-07 MaxDP=6.57D-06 DE=-8.76D-10 OVMax= 9.55D-06

 Cycle  12  Pass 1  IDiag  1:
 RMSU=  5.32D-08    CP:  1.00D+00  1.57D+00  1.70D+00
 E= -236.512164892071     Delta-E=       -0.000000000337 Rises=F Damp=F
 DIIS: error= 1.19D-07 at cycle   4 NSaved=   4.
 NSaved= 4 IEnMin= 4 EnMin= -236.512164892071     IErMin= 4 ErrMin= 1.19D-07
 ErrMax= 1.19D-07  0.00D+00 EMaxC= 1.00D-01 BMatC= 2.87D-12 BMatP= 9.55D-11
 IDIUse=1 WtCom= 1.00D+00 WtEn= 0.00D+00
 Coeff-Com: -0.803D-01-0.802D-01 0.352D+00 0.808D+00
 Coeff:     -0.803D-01-0.802D-01 0.352D+00 0.808D+00
 Gap=     0.541 Goal=   None    Shift=    0.000
 RMSDP=2.81D-08 MaxDP=6.06D-07 DE=-3.37D-10 OVMax= 8.94D-07

 Cycle  13  Pass 1  IDiag  1:
 RMSU=  1.36D-08    CP:  1.00D+00  1.60D+00  1.77D+00  1.18D+00
 E= -236.512164892073     Delta-E=       -0.000000000003 Rises=F Damp=F
 DIIS: error= 4.67D-08 at cycle   5 NSaved=   5.
 NSaved= 5 IEnMin= 5 EnMin= -236.512164892073     IErMin= 5 ErrMin= 4.67D-08
 ErrMax= 4.67D-08  0.00D+00 EMaxC= 1.00D-01 BMatC= 4.79D-13 BMatP= 2.87D-12
 IDIUse=1 WtCom= 1.00D+00 WtEn= 0.00D+00
 Coeff-Com:  0.688D-01 0.629D-01-0.343D+00 0.649D-02 0.121D+01
 Coeff:      0.688D-01 0.629D-01-0.343D+00 0.649D-02 0.121D+01
 Gap=     0.541 Goal=   None    Shift=    0.000
 RMSDP=1.85D-08 MaxDP=3.99D-07 DE=-2.61D-12 OVMax= 5.34D-07

 Cycle  14  Pass 1  IDiag  1:
 RMSU=  4.94D-09    CP:  1.00D+00  1.61D+00  1.81D+00  1.41D+00  1.33D+00
 E= -236.512164892070     Delta-E=        0.000000000003 Rises=F Damp=F
 DIIS: error= 9.45D-09 at cycle   6 NSaved=   6.
 NSaved= 6 IEnMin= 5 EnMin= -236.512164892073     IErMin= 6 ErrMin= 9.45D-09
 ErrMax= 9.45D-09  0.00D+00 EMaxC= 1.00D-01 BMatC= 1.79D-14 BMatP= 4.79D-13
 IDIUse=1 WtCom= 1.00D+00 WtEn= 0.00D+00
 Coeff-Com:  0.763D-02 0.789D-02-0.350D-01-0.507D-01 0.626D-01 0.101D+01
 Coeff:      0.763D-02 0.789D-02-0.350D-01-0.507D-01 0.626D-01 0.101D+01
 Gap=     0.541 Goal=   None    Shift=    0.000
 RMSDP=3.15D-09 MaxDP=5.62D-08 DE= 2.96D-12 OVMax= 8.40D-08

 SCF Done:  E(RHF) =  -236.512164892     A.U. after   14 cycles
            NFock= 14  Conv=0.31D-08     -V/T= 2.9948
 KE= 1.185658256856D+02 PE=-1.067407090962D+03 EE= 4.311342359773D+02
 Leave Link  502 at Wed May 11 21:32:51 2022, MaxMem= 67108864000 cpu:              55.7 elap:               2.0
 (Enter /cm/shared/apps/gaussian/intel/EM64T/SSE4_2-enabled/binary//g16/l801.exe)
 Range of M.O.s used for correlation:     1   114
 NBasis=   114 NAE=    29 NBE=    29 NFC=     0 NFV=     0
 NROrb=    114 NOA=    29 NOB=    29 NVA=    85 NVB=    85

 **** Warning!!: The largest alpha MO coefficient is  0.28647696D+02

 Leave Link  801 at Wed May 11 21:32:51 2022, MaxMem= 67108864000 cpu:               0.9 elap:               0.1
 (Enter /cm/shared/apps/gaussian/intel/EM64T/SSE4_2-enabled/binary//g16/l906.exe)
 FulOut=F Deriv=T AODrv=T NAtomX=    16
   MMem=           0  MDisk=          29 MDiskD=          29
  W3Min=      376884 MinDsk=     1164521 NBas6D=         114
 NBas2D=        6660    NTT=        6555    LW2=     3308096
    MDV= 67108671785 MDiskM=     8175764 NBas2p=        6540
 Disk-based method using ON**2 memory for 29 occupieds at a time.
 Permanent disk used for amplitudes=     7525645 words.
 Estimated scratch disk usage=    82645912 words.
 IMap=   1   2   3   4   5   6   7   8   9  10  11  12  13  14  15  16  17  18  19  20
 IMap=  21  22  23  24  25  26  27  28  29
 Actual    scratch disk usage=    75697048 words.
 JobTyp=1 Pass  1:  I=   1 to  29 NPSUse= 28 ParTrn=T ParDer=T DoDerP=T.
 (rs|ai) integrals will be sorted in core.
 Spin components of T(2) and E(2):
     alpha-alpha T2 =       0.3031613915D-01 E2=     -0.9809868119D-01
     alpha-beta  T2 =       0.1780626118D+00 E2=     -0.5851039807D+00
     beta-beta   T2 =       0.3031613915D-01 E2=     -0.9809868119D-01
 The integrals were generated   1 times.
 ANorm=    0.1112966707D+01
 E2 =    -0.7813013431D+00 EUMP2 =    -0.23729346623512D+03
 Leave Link  906 at Wed May 11 21:33:02 2022, MaxMem= 67108864000 cpu:             288.5 elap:              10.3
 (Enter /cm/shared/apps/gaussian/intel/EM64T/SSE4_2-enabled/binary//g16/l1101.exe)
 Using compressed Sx but separate Hx and Fx, NAtomX=    16.
 Will process     17 centers per pass.
   1 Symmetry operations used in ECPInt.
 ECPInt:  NShTT=    1770 NPrTT=    5742 LenC2=    1754 LenP2D=    4626.
 LDataN:  DoStor=T MaxTD1= 8 Len=  415
 Leave Link 1101 at Wed May 11 21:33:02 2022, MaxMem= 67108864000 cpu:              12.1 elap:               0.5
 (Enter /cm/shared/apps/gaussian/intel/EM64T/SSE4_2-enabled/binary//g16/l1102.exe)
 Leave Link 1102 at Wed May 11 21:33:02 2022, MaxMem= 67108864000 cpu:               1.1 elap:               0.1
 (Enter /cm/shared/apps/gaussian/intel/EM64T/SSE4_2-enabled/binary//g16/l1110.exe)
 Forming Gx(P) for the SCF density, NAtomX=    16.
 Integral derivatives from FoFJK, PRISM(SPDF).
 Do as many integral derivatives as possible in FoFJK.
 G2DrvN: MDV=   67108862712.
 G2DrvN: will do    17 centers at a time, making    1 passes.
 Calling FoFCou, ICntrl=  3107 FMM=F I1Cent=   0 AccDes= 0.00D+00.
 FoFJK:  IHMeth= 1 ICntrl=    3107 DoSepK=F KAlg= 0 I1Cent=           0 FoldK=F
 IRaf=         0 NMat=       1 IRICut=       1 DoRegI=T DoRafI=F ISym2E= 0 IDoP0=0 IntGTp=1.
 FoFCou: FMM=F IPFlag=           0 FMFlag=      100000 FMFlg1=           0
         NFxFlg=           0 DoJE=F BraDBF=F KetDBF=F FulRan=T
         wScrn=  0.000000 ICntrl=      3107 IOpCl=  0 I1Cent=           0 NGrid=           0
         NMat0=    1 NMatS0=      1 NMatT0=    0 NMatD0=    1 NMtDS0=    0 NMtDT0=    0
 Symmetry not used in FoFCou.
 End of G2Drv F.D. properties file   721 does not exist.
 End of G2Drv F.D. properties file   722 does not exist.
 End of G2Drv F.D. properties file   788 does not exist.
 Leave Link 1110 at Wed May 11 21:33:03 2022, MaxMem= 67108864000 cpu:              10.4 elap:               0.4
 (Enter /cm/shared/apps/gaussian/intel/EM64T/SSE4_2-enabled/binary//g16/l1002.exe)
 Minotr:  Closed shell wavefunction.
          IDoAtm=1111111111111111
          Direct CPHF calculation.
          Differentiating once with respect to electric field.
                with respect to dipole field.
          Differentiating once with respect to nuclear coordinates.
          Requested convergence is 1.0D-08 RMS, and 1.0D-07 maximum.
          Secondary convergence is 1.0D-12 RMS, and 1.0D-12 maximum.
          NewPWx=T KeepS1=T KeepF1=T KeepIn=T MapXYZ=F SortEE=F KeepMc=T.
 Keep R1 ints in memory in canonical form, NReq=27445910.
 FoFCou: FMM=F IPFlag=           0 FMFlag=           0 FMFlg1=           0
         NFxFlg=           0 DoJE=F BraDBF=F KetDBF=F FulRan=T
         wScrn=  0.000000 ICntrl=       600 IOpCl=  0 I1Cent=           0 NGrid=           0
         NMat0=    1 NMatS0=   6555 NMatT0=    0 NMatD0=    1 NMtDS0=    0 NMtDT0=    0
 Symmetry not used in FoFCou.
 Two-electron integral symmetry not used.
          MDV=   67108864000 using IRadAn=       1.
          Solving linear equations simultaneously, MaxMat=       0.
          There are    51 degrees of freedom in the 1st order CPHF.  IDoFFX=6 NUNeed=    51.
     48 vectors produced by pass  0 Test12= 4.83D-15 1.96D-09 XBig12= 9.48D+00 9.79D-01.
 AX will form    48 AO Fock derivatives at one time.
     48 vectors produced by pass  1 Test12= 4.83D-15 1.96D-09 XBig12= 1.31D-01 7.25D-02.
     48 vectors produced by pass  2 Test12= 4.83D-15 1.96D-09 XBig12= 1.65D-03 7.62D-03.
     48 vectors produced by pass  3 Test12= 4.83D-15 1.96D-09 XBig12= 1.54D-05 5.84D-04.
     48 vectors produced by pass  4 Test12= 4.83D-15 1.96D-09 XBig12= 1.21D-07 4.44D-05.
     48 vectors produced by pass  5 Test12= 4.83D-15 1.96D-09 XBig12= 5.33D-10 2.68D-06.
     29 vectors produced by pass  6 Test12= 4.83D-15 1.96D-09 XBig12= 2.34D-12 1.83D-07.
      3 vectors produced by pass  7 Test12= 4.83D-15 1.96D-09 XBig12= 1.00D-14 1.10D-08.
 InvSVY:  IOpt=1 It=  1 EMax= 1.33D-15
 Solved reduced A of dimension   320 with    51 vectors.
 FullF1:  Do perturbations      1 to      51.
 Saving first derivative matrices.
 End of Minotr F.D. properties file   721 does not exist.
 End of Minotr F.D. properties file   722 does not exist.
 End of Minotr F.D. properties file   788 does not exist.
 Leave Link 1002 at Wed May 11 21:33:04 2022, MaxMem= 67108864000 cpu:              30.2 elap:               1.1
 (Enter /cm/shared/apps/gaussian/intel/EM64T/SSE4_2-enabled/binary//g16/l811.exe)
 MDV= 67108864000.
 Form MO integral derivatives with frozen-active canonical formalism.
 MOERI=1 MOERIx=1 NAtoms=    16 NAtomX=    16.
 Discarding MO integrals.
 MO basis two electron integral derivatives will not be stored on disk.
 IAlg= 3 DoFC=T DoPWx=T Debug=F.
 Reordered first order wavefunction length =     12152450
 In DefCFB: NBatch=  1 ICI= 29 ICA= 85 LFMax= 85
            Large arrays: LIAPS=   128140560 LIARS=    76715730 words.
 In StABat: MaxSiz= 39 MinSiz= 37 NAtomB=  3
 DoIAMN: NPSUse= 28.
 Leave Link  811 at Wed May 11 21:33:26 2022, MaxMem= 67108864000 cpu:             628.3 elap:              22.5
 (Enter /cm/shared/apps/gaussian/intel/EM64T/SSE4_2-enabled/binary//g16/l804.exe)
 Closed-shell transformation, MDV= 67108864000 ITran=4 ISComp=1.
 Semi-Direct transformation.
 ModeAB=           4 MOrb=            29 LenV=   67108402218
 LASXX=     17409106 LTotXX=    17409106 LenRXX=    35346331
 LTotAB=    17937225 MaxLAS=    21581568 LenRXY=           0
 NonZer=    52755437 LenScr=    79902720 LnRSAI=    21581568
 LnScr1=    33134080 LExtra=           0 Total=    169964699
 MaxDsk=          -1 SrtSym=           T ITran=            4
 DoSDTr:  NPSUse= 28
 JobTyp=0 Pass  1:  I=   1 to  29.
 (rs|ai) integrals will be sorted in core.
 Complete sort for first half transformation.
 First half transformation complete.
 Begin second half transformation for I=  10.
 Begin second half transformation for I=  20.
 Complete sort for second half transformation.
 Second half transformation complete.
 SymMOI:  orbitals are not symmetric.
 Spin components of T(2) and E(2):
     alpha-alpha T2 =       0.3031613915D-01 E2=     -0.9809868119D-01
     alpha-beta  T2 =       0.1780626118D+00 E2=     -0.5851039807D+00
     beta-beta   T2 =       0.3031613915D-01 E2=     -0.9809868119D-01
 ANorm=    0.1573972611D+01
 E2 =    -0.7813013431D+00 EUMP2 =    -0.23729346623512D+03
 Leave Link  804 at Wed May 11 21:33:29 2022, MaxMem= 67108864000 cpu:              76.2 elap:               2.7
 (Enter /cm/shared/apps/gaussian/intel/EM64T/SSE4_2-enabled/binary//g16/l1002.exe)
 Minotr:  Closed shell wavefunction.
          Computing MP2/KS-MP2 derivatives.
          Using Z-Vector for PSCF gradient.
          Skipping F1 and S1 gradient terms here.
          IDoAtm=1111111111111111
          Using MO integrals in the linear equations.
          Forming densities via direct SCF.
          Differentiating once with respect to electric field.
                with respect to dipole field.
          Differentiating once with respect to nuclear coordinates.
          Requested convergence is 1.0D-10 RMS, and 1.0D-09 maximum.
          NewPWx=F KeepS1=T KeepF1=T KeepIn=T MapXYZ=F SortEE=F KeepMc=T.
          MDV=   67108864000 using IRadAn=       5.
          Solving linear equations separately, MaxMat=       0.
          There are     1 degrees of freedom in the 1st order CPHF.  IDoFFX=0 NUNeed=     1.
 FoFJK:  IHMeth= 1 ICntrl=       0 DoSepK=F KAlg= 0 I1Cent=           0 FoldK=F
 IRaf=         0 NMat=       1 IRICut=       1 DoRegI=T DoRafI=F ISym2E= 0 IDoP0=0 IntGTp=1.
 FoFCou: FMM=F IPFlag=           0 FMFlag=      100000 FMFlg1=           0
         NFxFlg=           0 DoJE=F BraDBF=F KetDBF=F FulRan=T
         wScrn=  0.000000 ICntrl=         0 IOpCl=  0 I1Cent=           0 NGrid=           0
         NMat0=    1 NMatS0=      1 NMatT0=    0 NMatD0=    1 NMtDS0=    0 NMtDT0=    0
 Symmetry not used in FoFCou.
 LinEq1:  Iter=  0 NonCon=     1 RMS=6.69D-03 Max=9.73D-02 NDo=     1
 LinEq1:  Iter=  1 NonCon=     1 RMS=1.48D-03 Max=1.47D-02 NDo=     1
 LinEq1:  Iter=  2 NonCon=     1 RMS=4.52D-04 Max=5.02D-03 NDo=     1
 LinEq1:  Iter=  3 NonCon=     1 RMS=1.41D-04 Max=1.53D-03 NDo=     1
 LinEq1:  Iter=  4 NonCon=     1 RMS=4.25D-05 Max=5.44D-04 NDo=     1
 LinEq1:  Iter=  5 NonCon=     1 RMS=9.81D-06 Max=8.57D-05 NDo=     1
 LinEq1:  Iter=  6 NonCon=     1 RMS=4.51D-06 Max=6.40D-05 NDo=     1
 LinEq1:  Iter=  7 NonCon=     1 RMS=7.99D-07 Max=1.28D-05 NDo=     1
 LinEq1:  Iter=  8 NonCon=     1 RMS=2.24D-07 Max=2.63D-06 NDo=     1
 LinEq1:  Iter=  9 NonCon=     1 RMS=8.19D-08 Max=8.15D-07 NDo=     1
 LinEq1:  Iter= 10 NonCon=     1 RMS=1.42D-08 Max=1.62D-07 NDo=     1
 LinEq1:  Iter= 11 NonCon=     1 RMS=2.25D-09 Max=2.43D-08 NDo=     1
 LinEq1:  Iter= 12 NonCon=     1 RMS=6.96D-10 Max=7.97D-09 NDo=     1
 LinEq1:  Iter= 13 NonCon=     1 RMS=2.37D-10 Max=2.77D-09 NDo=     1
 LinEq1:  Iter= 14 NonCon=     0 RMS=3.63D-11 Max=2.70D-10 NDo=     1
 Linear equations converged to 1.000D-10 1.000D-09 after    14 iterations.
 End of Minotr F.D. properties file   721 does not exist.
 End of Minotr F.D. properties file   722 does not exist.
 End of Minotr F.D. properties file   788 does not exist.
 Leave Link 1002 at Wed May 11 21:33:31 2022, MaxMem= 67108864000 cpu:              45.4 elap:               1.7
 (Enter /cm/shared/apps/gaussian/intel/EM64T/SSE4_2-enabled/binary//g16/l1102.exe)
 Use density number 2.
 Symmetrizing basis deriv contribution to polar:
 IMax=3 JMax=2 DiffMx= 0.00D+00
 Leave Link 1102 at Wed May 11 21:33:31 2022, MaxMem= 67108864000 cpu:               0.6 elap:               0.0
 (Enter /cm/shared/apps/gaussian/intel/EM64T/SSE4_2-enabled/binary//g16/l1110.exe)
 Forming Gx(P) for generalized density number  2 NAtomX=    16.
 Integral derivatives from FoFJK, PRISM(SPDF).
 Do as many integral derivatives as possible in FoFJK.
 G2DrvN: MDV=   67108862712.
 G2DrvN: will do    17 centers at a time, making    1 passes.
 Calling FoFCou, ICntrl=  3107 FMM=F I1Cent=   0 AccDes= 0.00D+00.
 FoFJK:  IHMeth= 1 ICntrl=    3107 DoSepK=F KAlg= 0 I1Cent=           0 FoldK=F
 IRaf=         0 NMat=       1 IRICut=       1 DoRegI=T DoRafI=F ISym2E= 0 IDoP0=0 IntGTp=1.
 FoFCou: FMM=F IPFlag=           0 FMFlag=      100000 FMFlg1=           0
         NFxFlg=           0 DoJE=F BraDBF=F KetDBF=F FulRan=T
         wScrn=  0.000000 ICntrl=      3107 IOpCl=  0 I1Cent=           0 NGrid=           0
         NMat0=    1 NMatS0=      1 NMatT0=    0 NMatD0=    1 NMtDS0=    0 NMtDT0=    0
 Symmetry not used in FoFCou.
 End of G2Drv F.D. properties file   721 does not exist.
 End of G2Drv F.D. properties file   722 does not exist.
 End of G2Drv F.D. properties file   788 does not exist.
 Leave Link 1110 at Wed May 11 21:33:31 2022, MaxMem= 67108864000 cpu:              10.6 elap:               0.4
 (Enter /cm/shared/apps/gaussian/intel/EM64T/SSE4_2-enabled/binary//g16/l1112.exe)
 MP22nd: MDV=   67108864000
 This link is doing NAtomX=    16 total of    51 degrees of freedom.
 Using ON3 I/O method in MakUI.
 Using Ix for Sx.
 Using OV2 memory method for fx*t*t/D, MaxI=    29 DoOO2=F NP=  28.
 R2 and R3 integrals will be kept in memory, NReq=    43794580.
 FoFCou: FMM=F IPFlag=           0 FMFlag=           0 FMFlg1=           0
         NFxFlg=           0 DoJE=F BraDBF=F KetDBF=F FulRan=T
         wScrn=  0.000000 ICntrl=       600 IOpCl=  0 I1Cent=           0 NGrid=           0
         NMat0=    1 NMatS0=      1 NMatT0=    0 NMatD0=    1 NMtDS0=    0 NMtDT0=    0
 Symmetry not used in FoFCou.
 DD1Dir will call FoFMem   1 times, MxPair=       870
 NAB=   435 NAA=     0 NBB=     0.
 Symmetry is being used.
 FoFJK:  IHMeth= 1 ICntrl=       0 DoSepK=F KAlg= 0 I1Cent=           0 FoldK=F
 IRaf=         0 NMat=      51 IRICut=     127 DoRegI=T DoRafI=T ISym2E= 2 IDoP0=0 IntGTp=1.
 Discarding MO integrals.
 Leave Link 1112 at Wed May 11 21:33:48 2022, MaxMem= 67108864000 cpu:             482.1 elap:              17.3
 (Enter /cm/shared/apps/gaussian/intel/EM64T/SSE4_2-enabled/binary//g16/l601.exe)
 Copying SCF densities to generalized density rwf, IOpCl= 0 IROHF=0.

 **********************************************************************

            Population analysis using the SCF density.

 **********************************************************************

 Orbital symmetries:
       Occupied  (A) (A) (A) (A) (A) (A) (A) (A) (A) (A) (A) (A)
                 (A) (A) (A) (A) (A) (A) (A) (A) (A) (A) (A) (A)
                 (A) (A) (A) (A) (A)
       Virtual   (A) (A) (A) (A) (A) (A) (A) (A) (A) (A) (A) (A)
                 (A) (A) (A) (A) (A) (A) (A) (A) (A) (A) (A) (A)
                 (A) (A) (A) (A) (A) (A) (A) (A) (A) (A) (A) (A)
                 (A) (A) (A) (A) (A) (A) (A) (A) (A) (A) (A) (A)
                 (A) (A) (A) (A) (A) (A) (A) (A) (A) (A) (A) (A)
                 (A) (A) (A) (A) (A) (A) (A) (A) (A) (A) (A) (A)
                 (A) (A) (A) (A) (A) (A) (A) (A) (A) (A) (A) (A)
                 (A)
 The electronic state is 1-A.
 Alpha  occ. eigenvalues --   -5.43041  -3.42686  -3.42617  -3.42576  -1.70698
 Alpha  occ. eigenvalues --   -1.70409  -1.70167  -1.68831  -1.67133  -1.08052
 Alpha  occ. eigenvalues --   -1.06521  -1.05575  -1.04713  -1.03844  -1.03572
 Alpha  occ. eigenvalues --   -1.02505  -1.02055  -0.99740  -0.99418  -0.96305
 Alpha  occ. eigenvalues --   -0.93281  -0.89788  -0.88838  -0.87167  -0.85943
 Alpha  occ. eigenvalues --   -0.84204  -0.83890  -0.83154  -0.81918
 Alpha virt. eigenvalues --   -0.27806  -0.19403  -0.18669  -0.16964  -0.16400
 Alpha virt. eigenvalues --   -0.10892  -0.10727  -0.09809  -0.08408  -0.07090
 Alpha virt. eigenvalues --   -0.06583  -0.05865  -0.04502  -0.03253  -0.02883
 Alpha virt. eigenvalues --   -0.02232  -0.00831  -0.00443   0.00063   0.00489
 Alpha virt. eigenvalues --    0.00979   0.02001   0.02724   0.04372   0.05343
 Alpha virt. eigenvalues --    0.06743   0.08808   0.09688   0.10830   0.11581
 Alpha virt. eigenvalues --    0.13601   0.13651   0.16013   0.16191   0.18823
 Alpha virt. eigenvalues --    0.19403   0.20757   0.22054   0.25585   0.35309
 Alpha virt. eigenvalues --    0.61151   0.63413   0.71003   0.72350   0.77194
 Alpha virt. eigenvalues --    0.99881   1.04714   1.05647   1.06310   1.07059
 Alpha virt. eigenvalues --    1.07562   1.07905   1.09073   1.10798   1.11554
 Alpha virt. eigenvalues --    1.13814   1.15079   1.15950   1.16681   1.17099
 Alpha virt. eigenvalues --    1.17404   1.18172   1.19215   1.21329   1.22761
 Alpha virt. eigenvalues --    1.25800   1.30753   1.32432   1.35888   1.37553
 Alpha virt. eigenvalues --    1.38404   1.40968   1.43601   1.53279   2.24287
 Alpha virt. eigenvalues --    2.33487   2.39391   2.54828   2.83252   4.24844
 Alpha virt. eigenvalues --   15.47953  41.62463  41.63339  41.74967  81.45689
          Condensed to atoms (all electrons):
               1          2          3          4          5          6
     1  Hg  18.380603   0.045116  -0.001770  -0.004213   0.055160  -0.003220
     2  O    0.045116   6.407572   0.255431   0.256846  -0.012488   0.000319
     3  H   -0.001770   0.255431   0.235855  -0.014476   0.000200  -0.000001
     4  H   -0.004213   0.256846  -0.014476   0.238457   0.000563  -0.000000
     5  O    0.055160  -0.012488   0.000200   0.000563   6.403583   0.252926
     6  H   -0.003220   0.000319  -0.000001  -0.000000   0.252926   0.235176
     7  H   -0.002119   0.002941   0.000013  -0.000029   0.250855  -0.014318
     8  O    0.000627  -0.000036   0.000000   0.000001  -0.000131  -0.000002
     9  H    0.000272  -0.000000  -0.000000   0.000000  -0.000001   0.000000
    10  H    0.000399  -0.000000   0.000000  -0.000000   0.000003  -0.000000
    11  O    0.105313  -0.004318   0.000085   0.000112  -0.001915  -0.000083
    12  H   -0.002444  -0.000011   0.000000  -0.000000  -0.000035   0.000001
    13  H   -0.003623   0.000027   0.000000  -0.000000   0.000023  -0.000000
    14  O    0.059615  -0.009831   0.001655   0.000304  -0.016058   0.000680
    15  H   -0.003268   0.000466  -0.000016  -0.000000   0.000502  -0.000000
    16  H   -0.002064   0.000202   0.000011  -0.000001   0.002795  -0.000037
               7          8          9         10         11         12
     1  Hg  -0.002119   0.000627   0.000272   0.000399   0.105313  -0.002444
     2  O    0.002941  -0.000036  -0.000000  -0.000000  -0.004318  -0.000011
     3  H    0.000013   0.000000  -0.000000   0.000000   0.000085   0.000000
     4  H   -0.000029   0.000001   0.000000  -0.000000   0.000112  -0.000000
     5  O    0.250855  -0.000131  -0.000001   0.000003  -0.001915  -0.000035
     6  H   -0.014318  -0.000002   0.000000  -0.000000  -0.000083   0.000001
     7  H    0.228324   0.000007   0.000000   0.000000   0.000012   0.000000
     8  O    0.000007   6.366989   0.258244   0.259342  -0.053396   0.075829
     9  H    0.000000   0.258244   0.238433  -0.013302   0.001342  -0.001999
    10  H    0.000000   0.259342  -0.013302   0.232538   0.001808  -0.002120
    11  O    0.000012  -0.053396   0.001342   0.001808   6.568309   0.165395
    12  H    0.000000   0.075829  -0.001999  -0.002120   0.165395   0.146678
    13  H    0.000000   0.001196  -0.000034  -0.000033   0.244047  -0.007696
    14  O    0.000433   0.000027   0.000001   0.000000  -0.001569   0.000030
    15  H   -0.000002   0.000001  -0.000000  -0.000000  -0.000036   0.000000
    16  H    0.000017  -0.000000  -0.000000  -0.000000   0.000041  -0.000000
              13         14         15         16
     1  Hg  -0.003623   0.059615  -0.003268  -0.002064
     2  O    0.000027  -0.009831   0.000466   0.000202
     3  H    0.000000   0.001655  -0.000016   0.000011
     4  H   -0.000000   0.000304  -0.000000  -0.000001
     5  O    0.000023  -0.016058   0.000502   0.002795
     6  H   -0.000000   0.000680  -0.000000  -0.000037
     7  H    0.000000   0.000433  -0.000002   0.000017
     8  O    0.001196   0.000027   0.000001  -0.000000
     9  H   -0.000034   0.000001  -0.000000  -0.000000
    10  H   -0.000033   0.000000  -0.000000  -0.000000
    11  O    0.244047  -0.001569  -0.000036   0.000041
    12  H   -0.007696   0.000030   0.000000  -0.000000
    13  H    0.240136  -0.000149   0.000001   0.000000
    14  O   -0.000149   6.388599   0.251889   0.251006
    15  H    0.000001   0.251889   0.234569  -0.014055
    16  H    0.000000   0.251006  -0.014055   0.227711
 Mulliken charges:
               1
     1  Hg   1.375616
     2  O   -0.942237
     3  H    0.523012
     4  H    0.522435
     5  O   -0.935983
     6  H    0.528559
     7  H    0.533864
     8  O   -0.908698
     9  H    0.517045
    10  H    0.521366
    11  O   -1.025146
    12  H    0.626371
    13  H    0.526106
    14  O   -0.926633
    15  H    0.529950
    16  H    0.534374
 Sum of Mulliken charges =   2.00000
 Mulliken charges with hydrogens summed into heavy atoms:
               1
     1  Hg   1.375616
     2  O    0.103210
     5  O    0.126440
     8  O    0.129713
    11  O    0.127331
    14  O    0.137691
         Mulliken charges condensed to fragments:
      1      1.375616
      2      0.624384
 APT charges:
               1
     1  Hg   1.744445
     2  O   -0.727379
     3  H    0.365923
     4  H    0.368087
     5  O   -0.714107
     6  H    0.372718
     7  H    0.373373
     8  O   -0.817135
     9  H    0.392037
    10  H    0.400689
    11  O   -0.978742
    12  H    0.854978
    13  H    0.337268
    14  O   -0.719938
    15  H    0.375757
    16  H    0.372028
 Sum of APT charges =   2.00000
 APT charges with hydrogens summed into heavy atoms:
               1
     1  Hg   1.744445
     2  O    0.006630
     5  O    0.031984
     8  O   -0.024409
    11  O    0.213504
    14  O    0.027847
         APT charges condensed to fragments:
      1      1.744445
      2      0.255555
 Electronic spatial extent (au):  <R**2>=           1202.4887
 Charge=              2.0000 electrons
 Dipole moment (field-independent basis, Debye):
    X=             -3.3040    Y=              0.4831    Z=              0.8847  Tot=              3.4544
 Quadrupole moment (field-independent basis, Debye-Ang):
   XX=             13.0498   YY=            -28.9907   ZZ=            -26.5010
   XY=             -1.0928   XZ=             -1.7994   YZ=             -0.4370
 Traceless Quadrupole moment (field-independent basis, Debye-Ang):
   XX=             27.1971   YY=            -14.8434   ZZ=            -12.3537
   XY=             -1.0928   XZ=             -1.7994   YZ=             -0.4370
 Octapole moment (field-independent basis, Debye-Ang**2):
  XXX=           -175.5390  YYY=              4.4103  ZZZ=             16.6345  XYY=             24.8969
  XXY=              1.4243  XXZ=              8.8383  XZZ=             25.6040  YZZ=             -0.2686
  YYZ=            -16.7546  XYZ=              9.8869
 Hexadecapole moment (field-independent basis, Debye-Ang**3):
 XXXX=            102.2953 YYYY=           -154.1292 ZZZZ=           -125.6860 XXXY=            -81.0603
 XXXZ=             22.0793 YYYX=             -0.0569 YYYZ=            -17.5934 ZZZX=             32.1374
 ZZZY=              5.4593 XXYY=           -159.5437 XXZZ=            -97.9240 YYZZ=            -25.0176
 XXYZ=             34.6464 YYXZ=            -42.9990 ZZXY=              6.9842
 N-N= 2.811948644073D+02 E-N=-1.067407091937D+03  KE= 1.185658256856D+02
  Exact polarizability:  58.485   0.247  43.821   0.982  -0.104  43.590
 Approx polarizability:  32.596  -0.855  28.897   0.682  -0.208  29.650
 No NMR shielding tensors so no spin-rotation constants.
 Leave Link  601 at Wed May 11 21:33:49 2022, MaxMem= 67108864000 cpu:               4.0 elap:               0.2
 (Enter /cm/shared/apps/gaussian/intel/EM64T/SSE4_2-enabled/binary//g16/l701.exe)
 ... and contract with generalized density number  2.
 Compute integral second derivatives.
   1 Symmetry operations used in ECPInt.
 ECPInt:  NShTT=    1770 NPrTT=    5742 LenC2=    1754 LenP2D=    4626.
 LDataN:  DoStor=T MaxTD1= 9 Len=  602
 Leave Link  701 at Wed May 11 21:33:50 2022, MaxMem= 67108864000 cpu:              37.6 elap:               1.4
 (Enter /cm/shared/apps/gaussian/intel/EM64T/SSE4_2-enabled/binary//g16/l702.exe)
 L702 exits ... SP integral derivatives will be done elsewhere.
 Leave Link  702 at Wed May 11 21:33:50 2022, MaxMem= 67108864000 cpu:               0.5 elap:               0.0
 (Enter /cm/shared/apps/gaussian/intel/EM64T/SSE4_2-enabled/binary//g16/l703.exe)
 Integral derivatives from FoFJK, PRISM(SPDF).
 Compute integral second derivatives, UseDBF=F ICtDFT=           0.
 Calling FoFJK, ICntrl=  10100127 FMM=F ISym2X=0 I1Cent= 0 IOpClX= 0 NMat=1 NMatS=1 NMatT=0.
 FoFJK:  IHMeth= 1 ICntrl=10100127 DoSepK=F KAlg= 0 I1Cent=           0 FoldK=F
 IRaf=         0 NMat=       1 IRICut=       1 DoRegI=T DoRafI=F ISym2E= 0 IDoP0=0 IntGTp=1.
 FoFCou: FMM=F IPFlag=           0 FMFlag=      100000 FMFlg1=         800
         NFxFlg=           0 DoJE=F BraDBF=F KetDBF=F FulRan=T
         wScrn=  0.000000 ICntrl=  10100127 IOpCl=  0 I1Cent=           0 NGrid=           0
         NMat0=    1 NMatS0=      1 NMatT0=    0 NMatD0=    1 NMtDS0=    0 NMtDT0=    0
 Symmetry not used in FoFCou.
 Leave Link  703 at Wed May 11 21:33:51 2022, MaxMem= 67108864000 cpu:              16.6 elap:               0.6
 (Enter /cm/shared/apps/gaussian/intel/EM64T/SSE4_2-enabled/binary//g16/l716.exe)
 Dipole        =-1.26894782D+00 1.91728204D-01 2.76000367D-01
 Polarizability= 5.84847360D+01 2.46987072D-01 4.38212573D+01
                 9.82398552D-01-1.04472589D-01 4.35900067D+01
 Full mass-weighted force constant matrix:
 Low frequencies --- -316.2523 -308.9510 -298.5665 -152.3494 -108.0848  -64.1994
 Low frequencies ---  -60.3895  -43.5564  -32.0035
 ******    7 imaginary frequencies (negative Signs) ****** 
 Diagonal vibrational polarizability:
      174.9686137     235.6200323     273.8827333
 Harmonic frequencies (cm**-1), IR intensities (KM/Mole), Raman scattering
 activities (A**4/AMU), depolarization ratios for plane and unpolarized
 incident light, reduced masses (AMU), force constants (mDyne/A),
 and normal coordinates:
                      1                      2                      3
                      A                      A                      A
 Frequencies --   -315.7241              -306.8497              -297.5303
 Red. masses --      1.0233                 1.0364                 1.0332
 Frc consts  --      0.0601                 0.0575                 0.0539
 IR Inten    --      9.9385                65.5077                47.3246
  Atom  AN      X      Y      Z        X      Y      Z        X      Y      Z
     1  80     0.00  -0.00   0.00     0.00  -0.00  -0.00     0.00   0.00   0.00
     2   8    -0.02  -0.01  -0.01    -0.01   0.01  -0.01    -0.00   0.01  -0.00
     3   1     0.28   0.48  -0.20     0.12   0.20  -0.10    -0.02  -0.00   0.02
     4   1    -0.08  -0.41   0.42    -0.03  -0.15   0.15     0.00   0.01  -0.01
     5   8     0.01  -0.00  -0.00    -0.00   0.01   0.02     0.02  -0.00  -0.01
     6   1     0.11   0.10   0.20    -0.01  -0.00   0.00     0.19   0.18   0.36
     7   1    -0.23  -0.01  -0.15    -0.00   0.00   0.02    -0.37   0.02  -0.25
     8   8     0.00   0.01   0.00     0.00  -0.01  -0.03    -0.00  -0.01  -0.01
     9   1    -0.08  -0.23   0.02     0.21   0.60  -0.08     0.05   0.15  -0.02
    10   1     0.08   0.20  -0.14    -0.20  -0.49   0.32    -0.05  -0.15   0.09
    11   8     0.00  -0.00  -0.01    -0.00   0.01   0.01     0.00  -0.00  -0.00
    12   1    -0.00  -0.01  -0.03     0.00   0.03   0.05     0.00   0.00   0.01
    13   1    -0.01   0.01  -0.00     0.00   0.01   0.01     0.01  -0.01  -0.01
    14   8     0.00   0.01   0.00     0.01  -0.00   0.00    -0.02  -0.02   0.01
    15   1     0.06  -0.11  -0.03     0.10  -0.18  -0.04    -0.27   0.41   0.13
    16   1    -0.07   0.04   0.09    -0.12   0.06   0.14     0.37  -0.20  -0.33
                      4                      5                      6
                      A                      A                      A
 Frequencies --   -135.1892               -89.5501               -59.2744
 Red. masses --      1.2590                 2.3639                 3.7557
 Frc consts  --      0.0136                 0.0112                 0.0078
 IR Inten    --      2.9289                 6.7688                12.6401
  Atom  AN      X      Y      Z        X      Y      Z        X      Y      Z
     1  80    -0.00   0.00   0.00     0.01  -0.00  -0.01    -0.02  -0.01  -0.05
     2   8    -0.00   0.01   0.01    -0.04   0.02  -0.06     0.23   0.07   0.22
     3   1    -0.15  -0.18   0.13     0.05   0.10  -0.16     0.17   0.27   0.50
     4   1     0.09   0.21  -0.23    -0.14  -0.09   0.08     0.55  -0.05   0.21
     5   8     0.02  -0.02   0.01    -0.05   0.05   0.04    -0.02   0.01   0.01
     6   1     0.27   0.20   0.38    -0.25  -0.11  -0.15    -0.02   0.02   0.06
     7   1    -0.34  -0.02  -0.21     0.20   0.13   0.17    -0.03   0.05  -0.01
     8   8    -0.01  -0.03  -0.06    -0.01  -0.02  -0.11    -0.02   0.06   0.14
     9   1    -0.10  -0.05  -0.12    -0.20  -0.08  -0.23     0.01   0.04   0.17
    10   1     0.07  -0.05  -0.12     0.18  -0.08  -0.24    -0.05   0.09   0.15
    11   8    -0.01   0.01   0.08    -0.01   0.04   0.23    -0.03   0.04   0.11
    12   1    -0.00   0.00   0.02    -0.00   0.03   0.09    -0.02   0.04   0.10
    13   1    -0.00   0.10   0.17     0.01   0.29   0.47    -0.00   0.08   0.16
    14   8     0.04  -0.01  -0.05    -0.00  -0.08   0.06     0.00  -0.08   0.02
    15   1     0.31  -0.34  -0.14    -0.22   0.11   0.10    -0.07  -0.10   0.02
    16   1    -0.20   0.10   0.17     0.21  -0.18  -0.04     0.03  -0.09   0.08
                      7                      8                      9
                      A                      A                      A
 Frequencies --    -54.6998                39.5048                69.1232
 Red. masses --      3.9773                 3.5309                 4.7884
 Frc consts  --      0.0070                 0.0032                 0.0135
 IR Inten    --     11.1700                 7.3540                 2.6911
  Atom  AN      X      Y      Z        X      Y      Z        X      Y      Z
     1  80    -0.01   0.05  -0.01    -0.03  -0.03   0.03    -0.01  -0.00   0.00
     2   8    -0.00   0.04  -0.06     0.11   0.23  -0.10     0.02   0.11  -0.08
     3   1     0.01   0.03  -0.08     0.17   0.38  -0.09    -0.01   0.03  -0.08
     4   1    -0.05   0.00  -0.01     0.17   0.12  -0.01     0.03   0.20  -0.17
     5   8     0.21  -0.17  -0.09     0.13  -0.09  -0.01    -0.13  -0.07  -0.12
     6   1     0.40  -0.08  -0.26     0.16  -0.12  -0.29    -0.03   0.01  -0.02
     7   1     0.22  -0.43  -0.02     0.25  -0.30   0.11    -0.27  -0.12  -0.20
     8   8    -0.05  -0.17   0.08     0.00   0.05  -0.06     0.30   0.16  -0.02
     9   1    -0.04  -0.19   0.09    -0.05   0.05  -0.10     0.33   0.25  -0.03
    10   1    -0.05  -0.18   0.09     0.05   0.04  -0.10     0.27   0.27  -0.03
    11   8     0.03  -0.05   0.02    -0.04   0.03   0.03     0.07  -0.20   0.07
    12   1    -0.01  -0.09   0.04    -0.03   0.06  -0.01     0.14  -0.16   0.07
    13   1     0.08  -0.05   0.03    -0.06   0.08   0.08     0.08  -0.17   0.11
    14   8    -0.06  -0.15   0.13     0.07   0.08  -0.14    -0.10   0.01   0.12
    15   1    -0.19  -0.27   0.09     0.12   0.32  -0.06    -0.11  -0.15   0.07
    16   1     0.05  -0.19   0.29     0.06   0.07  -0.40    -0.12   0.03   0.28
                     10                     11                     12
                      A                      A                      A
 Frequencies --     86.6902                93.0477               254.9158
 Red. masses --      4.9991                 4.9799                 5.8588
 Frc consts  --      0.0221                 0.0254                 0.2243
 IR Inten    --      4.0747                 4.6143                 5.1622
  Atom  AN      X      Y      Z        X      Y      Z        X      Y      Z
     1  80    -0.00  -0.02  -0.04     0.04  -0.04   0.01    -0.02   0.03   0.02
     2   8    -0.06  -0.04  -0.03     0.04   0.12  -0.10     0.35  -0.26  -0.27
     3   1    -0.06  -0.11  -0.09     0.02   0.00  -0.15     0.32  -0.26  -0.24
     4   1    -0.12   0.02  -0.07     0.02   0.26  -0.23     0.31  -0.33  -0.19
     5   8     0.22   0.03   0.20    -0.10  -0.04  -0.17    -0.09  -0.10   0.11
     6   1     0.30   0.10   0.30    -0.01   0.04  -0.01    -0.08  -0.07   0.22
     7   1     0.16   0.06   0.15    -0.29  -0.07  -0.28    -0.14  -0.03   0.06
     8   8     0.03   0.02   0.11    -0.20   0.05   0.04     0.01   0.00   0.02
     9   1     0.06   0.01   0.13    -0.19  -0.01   0.07    -0.13   0.03  -0.10
    10   1    -0.00   0.06   0.12    -0.20   0.01   0.05     0.15  -0.11  -0.06
    11   8     0.00  -0.03   0.11    -0.07   0.21  -0.03     0.01   0.06   0.04
    12   1     0.01  -0.03   0.09    -0.08   0.22  -0.04    -0.01   0.08   0.13
    13   1     0.03   0.09   0.23    -0.14   0.20  -0.06     0.03  -0.11  -0.14
    14   8    -0.16   0.28   0.10    -0.14   0.07   0.18    -0.09   0.01  -0.06
    15   1    -0.05   0.29   0.10    -0.14  -0.13   0.12    -0.03  -0.03  -0.07
    16   1    -0.36   0.36   0.04    -0.23   0.12   0.38    -0.06   0.00  -0.06
                     13                     14                     15
                      A                      A                      A
 Frequencies --    276.0323               284.1619               341.6107
 Red. masses --      5.7603                 1.2148                 6.6445
 Frc consts  --      0.2586                 0.0578                 0.4568
 IR Inten    --     12.0368               106.9381                 8.6810
  Atom  AN      X      Y      Z        X      Y      Z        X      Y      Z
     1  80     0.00  -0.01   0.03     0.00   0.01   0.00    -0.04  -0.02   0.00
     2   8     0.06  -0.03  -0.01     0.03  -0.01  -0.02     0.12  -0.10  -0.13
     3   1     0.07  -0.01  -0.02     0.02  -0.04  -0.03     0.09  -0.12  -0.09
     4   1     0.07  -0.04  -0.01    -0.01  -0.01  -0.00     0.13  -0.08  -0.15
     5   8     0.16   0.31  -0.17    -0.02  -0.03   0.02     0.14   0.29  -0.16
     6   1     0.09   0.26  -0.24    -0.01  -0.02   0.03     0.11   0.28  -0.16
     7   1     0.12   0.27  -0.19    -0.02  -0.03   0.02     0.08   0.26  -0.19
     8   8     0.04  -0.03   0.00    -0.05   0.01  -0.04    -0.05   0.04  -0.01
     9   1     0.15  -0.04   0.09     0.33  -0.08   0.28    -0.07   0.08  -0.04
    10   1    -0.06   0.06   0.05    -0.44   0.28   0.17    -0.04   0.06  -0.03
    11   8     0.01  -0.01   0.02    -0.01  -0.07  -0.02    -0.08  -0.10   0.01
    12   1    -0.00  -0.02  -0.09     0.01  -0.12  -0.33    -0.07  -0.08   0.04
    13   1     0.02   0.21   0.24    -0.06   0.40   0.44    -0.06  -0.15  -0.03
    14   8    -0.30  -0.10  -0.20     0.01  -0.00   0.00     0.31   0.05   0.25
    15   1    -0.24  -0.26  -0.24     0.04   0.01   0.00     0.23   0.04   0.25
    16   1    -0.26  -0.12  -0.11     0.03  -0.01  -0.03     0.24   0.09   0.31
                     16                     17                     18
                      A                      A                      A
 Frequencies --    348.3611               459.4549               476.6107
 Red. masses --      3.8189                 1.3804                 1.2338
 Frc consts  --      0.2731                 0.1717                 0.1651
 IR Inten    --    155.0275                32.8231                71.2329
  Atom  AN      X      Y      Z        X      Y      Z        X      Y      Z
     1  80    -0.03  -0.01  -0.00     0.00   0.00  -0.00     0.00   0.00   0.00
     2   8    -0.00  -0.00  -0.01     0.04   0.01   0.04    -0.07  -0.02  -0.07
     3   1    -0.02  -0.06  -0.01     0.09  -0.19  -0.23    -0.22   0.31   0.51
     4   1    -0.05   0.01  -0.01    -0.31   0.09   0.10     0.57  -0.23  -0.13
     5   8    -0.01   0.02  -0.01    -0.01  -0.01  -0.01     0.00  -0.00   0.01
     6   1     0.00   0.03   0.01     0.05   0.03  -0.00    -0.07  -0.05  -0.04
     7   1    -0.03   0.02  -0.02    -0.00  -0.03   0.01    -0.02  -0.02  -0.00
     8   8     0.24  -0.16   0.02     0.02   0.02   0.07     0.01   0.00   0.02
     9   1     0.48  -0.25   0.22    -0.30   0.07  -0.19    -0.12   0.01  -0.08
    10   1     0.04  -0.01   0.12     0.33  -0.30  -0.07     0.14  -0.14  -0.03
    11   8     0.09   0.27  -0.06    -0.05  -0.05  -0.10    -0.02  -0.02  -0.06
    12   1    -0.05   0.30  -0.28    -0.00   0.14   0.08     0.01   0.06   0.01
    13   1     0.03   0.50   0.16     0.03   0.45   0.43     0.00   0.24   0.21
    14   8     0.06   0.01   0.06     0.00  -0.00   0.00    -0.00   0.01   0.01
    15   1     0.03   0.01   0.06     0.08   0.01   0.01    -0.05   0.04   0.02
    16   1     0.04   0.02   0.08     0.00  -0.00  -0.04    -0.04   0.02   0.01
                     19                     20                     21
                      A                      A                      A
 Frequencies --    530.5652               553.7149               573.0301
 Red. masses --      1.1792                 1.1754                 4.7168
 Frc consts  --      0.1956                 0.2123                 0.9125
 IR Inten    --     24.3082                20.1795                81.9129
  Atom  AN      X      Y      Z        X      Y      Z        X      Y      Z
     1  80    -0.00   0.00   0.00     0.00   0.00  -0.00    -0.03  -0.01   0.00
     2   8    -0.00   0.01   0.00     0.00   0.00  -0.01    -0.01  -0.01   0.01
     3   1     0.05   0.05  -0.07    -0.05  -0.03   0.07     0.06   0.04  -0.07
     4   1     0.03   0.06  -0.05    -0.04  -0.06   0.07     0.04   0.05  -0.07
     5   8     0.07  -0.06  -0.04    -0.01   0.02  -0.01    -0.00   0.02  -0.01
     6   1    -0.48  -0.32   0.37    -0.02  -0.00  -0.08     0.08   0.06  -0.07
     7   1     0.13   0.65  -0.17    -0.08  -0.10  -0.02    -0.01  -0.08   0.02
     8   8    -0.00   0.00   0.00    -0.00  -0.00  -0.00    -0.15   0.15  -0.01
     9   1    -0.01  -0.02   0.00     0.01  -0.02   0.01    -0.32  -0.13  -0.04
    10   1     0.00  -0.03   0.01    -0.01  -0.00   0.01    -0.04  -0.32   0.07
    11   8     0.01  -0.00  -0.01     0.01   0.01   0.01     0.44   0.01  -0.03
    12   1     0.01  -0.01   0.00     0.01  -0.02   0.01     0.50  -0.05  -0.00
    13   1     0.03   0.01   0.01     0.03  -0.03  -0.03     0.40   0.22   0.17
    14   8    -0.01  -0.00   0.01    -0.03  -0.07   0.06     0.01   0.00   0.01
    15   1     0.16  -0.02   0.01     0.59   0.28   0.18    -0.04  -0.01   0.01
    16   1     0.01  -0.01  -0.06    -0.47   0.10  -0.51     0.03   0.00   0.05
                     22                     23                     24
                      A                      A                      A
 Frequencies --    648.1955               662.4853               676.0696
 Red. masses --      1.1556                 1.1463                 1.1469
 Frc consts  --      0.2861                 0.2964                 0.3089
 IR Inten    --    327.9810               366.3626               685.5967
  Atom  AN      X      Y      Z        X      Y      Z        X      Y      Z
     1  80    -0.00  -0.00   0.00    -0.00  -0.00  -0.00     0.00  -0.00   0.00
     2   8     0.04   0.06  -0.06    -0.01  -0.01   0.01    -0.01  -0.01   0.00
     3   1    -0.39  -0.32   0.47     0.05   0.06  -0.05     0.06   0.12  -0.03
     4   1    -0.35  -0.32   0.47     0.08   0.04  -0.08     0.12  -0.00  -0.06
     5   8     0.00  -0.00  -0.01     0.02   0.03   0.03    -0.06  -0.03  -0.04
     6   1     0.00   0.01   0.06    -0.15  -0.11  -0.18     0.46   0.33   0.17
     7   1     0.05   0.09   0.00    -0.19  -0.22  -0.05     0.50   0.28   0.24
     8   8    -0.01   0.00   0.00     0.00   0.00  -0.00    -0.01  -0.02   0.01
     9   1    -0.01   0.05  -0.02     0.00  -0.05   0.01    -0.01   0.19  -0.07
    10   1    -0.00   0.04  -0.02     0.00  -0.04   0.01     0.01   0.17  -0.08
    11   8     0.02   0.00   0.00    -0.01   0.00   0.00     0.01   0.00  -0.01
    12   1     0.01  -0.00   0.00     0.01   0.01   0.00    -0.01  -0.03   0.01
    13   1     0.00  -0.02  -0.02    -0.02  -0.01  -0.01     0.03   0.02   0.02
    14   8    -0.01   0.02  -0.00    -0.07   0.05   0.02    -0.03   0.01   0.01
    15   1     0.08  -0.12  -0.04     0.54  -0.27  -0.06     0.27  -0.04   0.00
    16   1     0.17  -0.06   0.06     0.60  -0.26  -0.08     0.19  -0.09  -0.11
                     25                     26                     27
                      A                      A                      A
 Frequencies --    679.9546               944.8742              1397.9584
 Red. masses --      1.1633                 1.0603                 1.0555
 Frc consts  --      0.3169                 0.5577                 1.2153
 IR Inten    --    337.8707                61.6808               186.1896
  Atom  AN      X      Y      Z        X      Y      Z        X      Y      Z
     1  80    -0.00  -0.00  -0.00     0.00  -0.00   0.00    -0.00   0.00   0.00
     2   8    -0.00  -0.00   0.00    -0.00   0.00  -0.00    -0.00   0.00  -0.00
     3   1     0.01  -0.01  -0.02    -0.01  -0.00   0.01     0.00   0.00   0.00
     4   1     0.00   0.02  -0.02    -0.00  -0.01   0.01     0.00   0.00  -0.00
     5   8     0.02   0.01   0.01    -0.00  -0.00   0.00     0.00   0.00   0.00
     6   1    -0.16  -0.12  -0.07     0.01   0.01  -0.00    -0.00  -0.00   0.00
     7   1    -0.17  -0.10  -0.08     0.00  -0.00   0.01     0.00   0.01  -0.00
     8   8    -0.03  -0.07   0.04     0.00   0.02  -0.03    -0.02  -0.02  -0.03
     9   1    -0.04   0.62  -0.22     0.06  -0.12   0.07     0.19  -0.03   0.12
    10   1     0.04   0.58  -0.26    -0.07  -0.04   0.05    -0.11   0.18  -0.02
    11   8     0.04   0.01  -0.02    -0.04   0.02  -0.02    -0.00  -0.03  -0.02
    12   1    -0.07  -0.12   0.03    -0.35  -0.21   0.24     0.29   0.66   0.61
    13   1     0.16   0.08   0.08     0.85  -0.03   0.09     0.08   0.00   0.05
    14   8     0.01  -0.00  -0.00     0.00   0.00   0.00    -0.00  -0.00   0.00
    15   1    -0.04   0.01  -0.00    -0.00  -0.01  -0.00    -0.00   0.00   0.00
    16   1    -0.03   0.02   0.02     0.01  -0.00   0.01    -0.00   0.00  -0.00
                     28                     29                     30
                      A                      A                      A
 Frequencies --   1641.6562              1719.7850              1722.7485
 Red. masses --      1.1136                 1.0890                 1.0877
 Frc consts  --      1.7682                 1.8977                 1.9019
 IR Inten    --   1712.8878               179.4589               150.9954
  Atom  AN      X      Y      Z        X      Y      Z        X      Y      Z
     1  80    -0.00  -0.00   0.00     0.00  -0.00   0.00     0.00  -0.00  -0.00
     2   8     0.00   0.00  -0.00     0.00  -0.01  -0.00    -0.01   0.02   0.01
     3   1    -0.00  -0.01   0.00     0.00   0.07   0.05     0.00  -0.20  -0.15
     4   1    -0.00  -0.01   0.01    -0.07   0.05  -0.02     0.21  -0.15   0.05
     5   8     0.00  -0.00   0.00     0.00   0.02  -0.02     0.00   0.04  -0.05
     6   1     0.01   0.01  -0.02    -0.12  -0.03   0.28    -0.24  -0.07   0.56
     7   1    -0.00   0.01  -0.01     0.10  -0.25   0.13     0.21  -0.50   0.26
     8   8     0.05  -0.01  -0.00    -0.00  -0.00   0.00     0.00   0.00  -0.00
     9   1    -0.31  -0.09  -0.21     0.00   0.00   0.00    -0.01  -0.00  -0.01
    10   1    -0.35   0.12   0.24     0.00  -0.00  -0.00    -0.02   0.01   0.01
    11   8    -0.05   0.04  -0.02    -0.00   0.00   0.00     0.00   0.00  -0.00
    12   1     0.59  -0.46   0.29     0.01   0.01  -0.01    -0.01  -0.01   0.02
    13   1    -0.02   0.08   0.02     0.01  -0.00  -0.00    -0.01   0.00   0.00
    14   8     0.00   0.00  -0.00    -0.03  -0.03  -0.05     0.01   0.01   0.02
    15   1    -0.00   0.01   0.00     0.30   0.54   0.18    -0.12  -0.21  -0.07
    16   1     0.01   0.00   0.02     0.09   0.00   0.62    -0.04  -0.00  -0.25
                     31                     32                     33
                      A                      A                      A
 Frequencies --   1727.9067              1748.9561              1810.7268
 Red. masses --      1.0865                 1.0833                 1.0655
 Frc consts  --      1.9113                 1.9524                 2.0583
 IR Inten    --    114.2270               784.2491              1618.7193
  Atom  AN      X      Y      Z        X      Y      Z        X      Y      Z
     1  80    -0.00  -0.00  -0.00    -0.00  -0.00   0.00    -0.00  -0.00   0.00
     2   8    -0.03   0.06   0.02     0.00  -0.00  -0.00     0.00  -0.00  -0.00
     3   1    -0.00  -0.52  -0.38    -0.00   0.03   0.03     0.00   0.00   0.01
     4   1     0.52  -0.38   0.12    -0.04   0.02  -0.01    -0.01   0.00   0.00
     5   8    -0.00  -0.01   0.02     0.00   0.00  -0.00     0.00   0.00  -0.00
     6   1     0.08   0.02  -0.18    -0.01  -0.00   0.02    -0.00   0.00   0.01
     7   1    -0.07   0.16  -0.09     0.01  -0.02   0.01     0.00  -0.01   0.00
     8   8    -0.00  -0.00   0.00    -0.02  -0.01   0.02    -0.05   0.00  -0.01
     9   1     0.02   0.01   0.01     0.07   0.08   0.02     0.48   0.05   0.31
    10   1     0.03  -0.01  -0.02     0.16  -0.04  -0.09     0.43  -0.14  -0.28
    11   8    -0.00  -0.00   0.00    -0.06   0.00   0.02    -0.01   0.03  -0.02
    12   1     0.04   0.02  -0.04     0.61   0.20  -0.55     0.26  -0.47   0.29
    13   1     0.04  -0.01  -0.00     0.46  -0.11  -0.05    -0.12   0.08   0.02
    14   8    -0.01  -0.01  -0.01     0.00   0.00   0.00     0.00   0.00   0.00
    15   1     0.08   0.15   0.05    -0.02  -0.03  -0.01    -0.01  -0.01  -0.00
    16   1     0.02   0.00   0.18    -0.00   0.00  -0.03     0.00   0.00  -0.00
                     34                     35                     36
                      A                      A                      A
 Frequencies --   3665.9905              3668.9910              3681.7782
 Red. masses --      1.0401                 1.0402                 1.0403
 Frc consts  --      8.2358                 8.2501                 8.3083
 IR Inten    --    107.7559               100.9247                83.5044
  Atom  AN      X      Y      Z        X      Y      Z        X      Y      Z
     1  80    -0.00  -0.00  -0.00    -0.00   0.00  -0.00    -0.00   0.00   0.00
     2   8     0.00  -0.00  -0.00     0.00  -0.00  -0.00    -0.02   0.04   0.01
     3   1    -0.01   0.00  -0.01    -0.01   0.00  -0.00     0.59  -0.20   0.33
     4   1     0.01   0.01   0.01     0.00   0.01   0.01    -0.25  -0.44  -0.49
     5   8    -0.00  -0.00  -0.00     0.00   0.02  -0.04    -0.00   0.00  -0.00
     6   1     0.00  -0.00   0.00     0.37  -0.57   0.05     0.01  -0.01   0.00
     7   1    -0.00   0.00   0.01    -0.40   0.19   0.58    -0.00   0.00   0.01
     8   8    -0.00  -0.00   0.00     0.00   0.00  -0.00    -0.00  -0.00  -0.00
     9   1     0.01  -0.00  -0.01    -0.01   0.00   0.01     0.02  -0.01  -0.03
    10   1     0.01   0.00   0.01    -0.01  -0.00  -0.01     0.02   0.01   0.03
    11   8     0.00  -0.00   0.00    -0.00   0.00  -0.00     0.00  -0.00   0.00
    12   1    -0.00   0.00   0.00     0.00  -0.00   0.00    -0.00   0.00  -0.00
    13   1     0.00   0.01  -0.01    -0.00  -0.01   0.01     0.00   0.01  -0.01
    14   8    -0.02  -0.02  -0.04     0.00   0.00   0.00    -0.00  -0.00  -0.00
    15   1    -0.04  -0.24   0.66     0.00   0.00  -0.00    -0.00  -0.01   0.01
    16   1     0.28   0.64  -0.08    -0.00  -0.01  -0.00     0.01   0.01  -0.00
                     37                     38                     39
                      A                      A                      A
 Frequencies --   3690.2920              3725.4792              3774.5281
 Red. masses --      1.0405                 1.0653                 1.0847
 Frc consts  --      8.3489                 8.7115                 9.1051
 IR Inten    --     75.6399               145.7948               186.9338
  Atom  AN      X      Y      Z        X      Y      Z        X      Y      Z
     1  80     0.00   0.00  -0.00     0.00   0.00   0.00     0.00   0.00   0.00
     2   8    -0.00   0.00   0.00     0.00  -0.00  -0.00     0.00  -0.00   0.00
     3   1     0.03  -0.01   0.02    -0.01   0.00  -0.01    -0.00   0.00  -0.00
     4   1    -0.01  -0.02  -0.02     0.00   0.01   0.01    -0.00  -0.00  -0.00
     5   8    -0.00  -0.00   0.00     0.00   0.00  -0.00     0.00  -0.00  -0.00
     6   1    -0.01   0.01  -0.00     0.01  -0.01   0.00    -0.01   0.02  -0.00
     7   1     0.01  -0.00  -0.01    -0.01   0.00   0.01    -0.01   0.00   0.01
     8   8     0.05   0.00  -0.00    -0.00   0.00  -0.00     0.00   0.00   0.00
     9   1    -0.35   0.20   0.56     0.01  -0.01  -0.02     0.00  -0.00  -0.00
    10   1    -0.39  -0.21  -0.56     0.01   0.01   0.02    -0.00  -0.00  -0.00
    11   8    -0.00  -0.00   0.00    -0.01  -0.04   0.04     0.00   0.00  -0.00
    12   1     0.02  -0.00  -0.00    -0.02   0.00   0.02     0.00  -0.00   0.00
    13   1     0.01   0.02  -0.03     0.11   0.71  -0.69    -0.00  -0.01   0.01
    14   8    -0.00  -0.00  -0.00     0.00   0.00   0.00     0.02   0.05  -0.04
    15   1    -0.00  -0.00   0.01     0.00   0.00  -0.01    -0.02  -0.19   0.68
    16   1     0.01   0.01  -0.00    -0.01  -0.02   0.00    -0.28  -0.65   0.02
                     40                     41                     42
                      A                      A                      A
 Frequencies --   3776.7448              3787.0093              3792.9685
 Red. masses --      1.0843                 1.0840                 1.0841
 Frc consts  --      9.1128                 9.1595                 9.1893
 IR Inten    --    181.9389               159.0957               196.4180
  Atom  AN      X      Y      Z        X      Y      Z        X      Y      Z
     1  80     0.00   0.00   0.00    -0.00  -0.00   0.00    -0.00  -0.00   0.00
     2   8     0.00   0.00   0.00    -0.05  -0.01  -0.05    -0.00  -0.00  -0.00
     3   1     0.00  -0.00   0.00     0.58  -0.25   0.30     0.01  -0.01   0.01
     4   1    -0.00  -0.00  -0.00     0.20   0.48   0.48     0.01   0.01   0.01
     5   8     0.05  -0.05  -0.03     0.00  -0.00   0.00     0.00  -0.00  -0.00
     6   1    -0.38   0.61  -0.11    -0.00   0.00  -0.00    -0.00   0.00  -0.00
     7   1    -0.34   0.13   0.57    -0.00   0.00   0.00    -0.00   0.00   0.00
     8   8    -0.00   0.00   0.00     0.00   0.00   0.00    -0.00  -0.02  -0.07
     9   1     0.00  -0.00  -0.00     0.01  -0.00  -0.01    -0.41   0.19   0.55
    10   1    -0.00  -0.00  -0.00    -0.01  -0.00  -0.01     0.42   0.20   0.51
    11   8     0.00  -0.00   0.00    -0.00  -0.00  -0.00    -0.00   0.00  -0.00
    12   1    -0.00   0.00  -0.00     0.00   0.00   0.00    -0.00  -0.00  -0.00
    13   1     0.00   0.00  -0.00     0.00   0.00  -0.00    -0.00  -0.00   0.00
    14   8    -0.00  -0.00   0.00    -0.00   0.00  -0.00     0.00   0.00  -0.00
    15   1     0.00   0.01  -0.02     0.00  -0.00   0.00    -0.00  -0.00   0.00
    16   1     0.01   0.02  -0.00    -0.00  -0.00   0.00    -0.00  -0.00   0.00

 -------------------
 - Thermochemistry -
 -------------------
 Temperature   298.150 Kelvin.  Pressure   1.00000 Atm.
 Atom     1 has atomic number 80 and mass 201.97060
 Atom     2 has atomic number  8 and mass  15.99491
 Atom     3 has atomic number  1 and mass   1.00783
 Atom     4 has atomic number  1 and mass   1.00783
 Atom     5 has atomic number  8 and mass  15.99491
 Atom     6 has atomic number  1 and mass   1.00783
 Atom     7 has atomic number  1 and mass   1.00783
 Atom     8 has atomic number  8 and mass  15.99491
 Atom     9 has atomic number  1 and mass   1.00783
 Atom    10 has atomic number  1 and mass   1.00783
 Atom    11 has atomic number  8 and mass  15.99491
 Atom    12 has atomic number  1 and mass   1.00783
 Atom    13 has atomic number  1 and mass   1.00783
 Atom    14 has atomic number  8 and mass  15.99491
 Atom    15 has atomic number  1 and mass   1.00783
 Atom    16 has atomic number  1 and mass   1.00783
 Molecular mass:   292.02342 amu.
 Principal axes and moments of inertia in atomic units:
                           1         2         3
     Eigenvalues --   745.018742092.397372146.38487
           X            0.99999  -0.00008  -0.00325
           Y            0.00012   0.99993   0.01209
           Z            0.00325  -0.01209   0.99992
 This molecule is an asymmetric top.
 Rotational symmetry number  1.
 Warning -- assumption of classical behavior for rotation
[...]
   zx         0.432301D+01      0.640604D+00      0.712768D+00
   zy         0.196179D+01      0.290707D+00      0.323455D+00
   zz         0.452822D+02      0.671013D+01      0.746603D+01

 ----------------------------------------------------------------------

 Dipole orientation:
    80         -0.10422681          0.17704191          1.53315146
     8          0.98343377          2.41167552         -2.26518398
     1         -0.20594329          2.33768068         -3.67210573
     1          1.57770954          4.15573980         -2.20440411
     8          2.88829333         -2.61174460         -0.13365733
     1          3.98136424         -3.61620413          0.96128748
     1          3.98815329         -1.84979608         -1.40511455
     8          1.76551163          1.07972242          8.79468454
     1          0.85062605          0.31166467         10.19726825
     1          2.85062326          2.37934339          9.52291599
     8         -0.42751214          2.31479523          4.88892636
     1          0.46390772          1.73664111          6.67814561
     1         -2.13166379          2.93949459          5.21016334
     8         -2.58661952         -2.19502913         -1.16768729
     1         -4.36859226         -2.50150513         -0.79875989
     1         -1.86048375         -3.82515340         -1.63809058

 Electric dipole moment (dipole orientation):
 (Debye = 10**-18 statcoulomb cm , SI units = C m)
                  (au)            (Debye)         (10**-30 SI)
   Tot        0.131269D+01      0.333653D+01      0.111295D+02
   x          0.000000D+00      0.000000D+00      0.000000D+00
   y          0.000000D+00      0.000000D+00      0.000000D+00
   z          0.131269D+01      0.333653D+01      0.111295D+02

 Dipole polarizability, Alpha (dipole orientation).
 (esu units = cm**3 , SI units = C**2 m**2 J**-1)
 Alpha(0;0):
               (au)            (10**-24 esu)      (10**-40 SI)
   iso        0.486320D+02      0.720652D+01      0.801833D+01
   aniso      0.148853D+02      0.220578D+01      0.245426D+01
   xx         0.441365D+02      0.654035D+01      0.727712D+01
   yx         0.507224D+00      0.751628D-01      0.836299D-01
   yy         0.447216D+02      0.662705D+01      0.737359D+01
   zx         0.250308D+01      0.370918D+00      0.412702D+00
   zy         0.377548D+01      0.559468D+00      0.622492D+00
   zz         0.570380D+02      0.845216D+01      0.940429D+01

 ----------------------------------------------------------------------
 1\1\GINC-CTCP002\Freq\RMP2-Full\SDDAll\H10Hg1O5(2+)\FLOREZ\11-May-2022
 \0\\#p MP2(full) SDDAll freq\\file 'w5s7.log' Now we use Def2-QZVPPD, 
 but it was opt at: ---' #p ZORA-SR+SO PBE QZ4P'---\\2,1\Hg,0.640659,0.
 188613,0.47331\O,-0.793106,1.097007,-1.226346\H,-1.756707,1.012256,-1.
 098857\H,-0.650753,1.996444,-1.576287\O,0.864126,-1.472702,-1.155697\H
 ,1.697266,-1.96949,-1.264865\H,0.597192,-1.185315,-2.050221\O,4.358604
 ,1.03853,1.668101\H,4.737275,0.7498,2.518811\H,4.952437,1.728936,1.318
 954\O,1.958251,1.522955,1.445905\H,3.02541,1.298242,1.598399\H,1.58525
 8,1.925674,2.2522\O,-1.194198,-1.137742,0.940229\H,-1.53835,-1.218227,
 1.850563\H,-1.137987,-2.04512,0.583518\\Version=ES64L-G16RevA.03\State
 =1-A\HF=-236.5121649\MP2=-237.2934662\RMSD=3.145e-09\RMSF=7.848e-03\Ze
 roPoint=0.1214991\Thermal=0.1312325\Dipole=1.09485,0.1493651,0.7086311
 \DipoleDeriv=1.7874515,0.2267881,0.1826602,0.2778744,1.7272788,0.16450
 96,0.2404388,0.1544444,1.7186038,-0.6755392,0.0596751,-0.1602011,0.023
 216,-0.6219647,0.0112122,-0.1680833,0.0571419,-0.8846346,0.3379387,0.0
 200802,0.0387012,0.0610699,0.3642096,0.0490093,0.0016939,0.0331378,0.3
 956202,0.3365047,0.0479978,-0.0455008,0.0001137,0.3213622,0.0094461,-0
 .0051282,0.0254516,0.4463944,-0.602052,-0.0617185,-0.024019,-0.0046576
 ,-0.8368491,-0.1709073,0.0162271,-0.1815708,-0.7034202,0.3449902,-0.00
 13053,-0.0081694,0.0294392,0.4554304,-0.0003785,0.0427785,-0.0427208,0
 .3177338,0.3998676,0.0449764,0.0604694,0.0202968,0.3777958,-0.0169618,
 0.0268544,0.0406832,0.3424542,-1.2396935,0.0313801,-0.0846924,0.230458
 7,-0.6293837,-0.0500579,0.0507824,-0.0855265,-0.5823287,0.3515535,-0.0
 313409,-0.0249103,-0.0743718,0.4598982,-0.0002142,-0.0109289,0.0378123
 ,0.3646594,0.3756349,-0.0233244,-0.0361373,-0.0290694,0.3942949,0.0472
 31,-0.0891904,0.0173384,0.4321375,-1.517583,-0.1275246,-0.2353604,-0.0
 072367,-0.7551385,-0.0230234,-0.2939925,-0.0862153,-0.6635048,1.929652
 1,0.0945697,0.3098819,-0.3206802,0.3008394,-0.0852611,0.1071752,-0.018
 4937,0.3344431,0.2537727,-0.094026,-0.067634,-0.0073378,0.4225234,-0.0
 213395,0.0592011,0.0128654,0.3355069,-0.9139287,-0.1413457,0.0644397,-
 0.1726986,-0.6493723,0.0321738,-0.0091322,-0.0079632,-0.5965142,0.4455
 17,-0.0236987,0.0103454,-0.0623423,0.3293413,0.0471573,-0.0361128,-0.0
 107138,0.3524139,0.3859134,-0.0211833,0.0201267,0.0359256,0.3397343,0.
 0074043,0.0674169,0.0543291,0.3904353\Polar=54.9801227,4.5897469,45.63
 36576,4.3230119,1.9617891,45.2822198\PG=C01 [X(H10Hg1O5)]\NImag=7\\0.1
 0929759,0.06974565,0.11732566,0.05409459,0.05593153,0.08528051,-0.0196
 8658,0.00115541,-0.01155099,0.55790499,0.00532478,-0.00956145,0.009374
 36,0.09512457,0.47396606,-0.00609168,0.00033795,-0.01915847,-0.0679286
 8,-0.19004568,0.12611552,-0.00368762,0.00150921,-0.00110800,-0.4696541
 1,-0.06943155,0.06444949,0.48471763,0.00294671,0.00456047,-0.00134943,
 -0.00896251,-0.04940327,0.01849365,0.05863720,0.05464535,-0.00712792,-
 0.00010263,0.00160487,0.04862377,0.02507936,-0.02904479,-0.06376235,-0
 .02731723,0.02431858,0.00329579,0.00267961,-0.00091058,-0.06555836,-0.
 03164510,0.01272315,-0.01112191,-0.05220271,0.02110423,0.07387733,0.00
 076562,-0.00053445,0.00104576,-0.08988060,-0.40863636,0.16260728,0.009
 87845,-0.00780046,0.00330432,0.07932367,0.41747232,-0.00101507,0.00481
 481,-0.00089518,0.03315221,0.15085857,-0.07634874,-0.00035319,0.010894
 46,0.00397003,-0.03227205,-0.16661343,0.07367143,-0.00774169,0.0067471
 0,0.00174847,-0.00053914,0.00454517,-0.00006581,0.00007450,-0.00056257
 ,-0.00034908,-0.00125513,0.00029339,-0.00000518,0.43643938,-0.00656808
 ,-0.02583308,-0.00987131,0.00454204,-0.00322394,0.00099236,-0.00022538
 ,-0.00153819,0.00038286,0.00074099,0.00015181,-0.00013645,-0.26696607,
 0.23349097,-0.00999221,-0.01901169,-0.02777352,0.00093675,0.00019969,0
 .00309643,-0.00007626,-0.00038686,-0.00046881,0.00029852,-0.00018813,-
 0.00050675,0.06994042,-0.07206159,0.50086871,0.00060921,-0.00000410,0.
 00118364,0.00059762,-0.00053604,0.00011414,0.00005545,-0.00002117,0.00
 005136,0.00010827,-0.00000159,0.00006663,-0.35088021,0.21156343,0.0108
 4957,0.36231698,0.00408913,-0.00246287,-0.00280971,0.00008851,-0.00060
 585,0.00018824,0.00013761,-0.00006338,0.00001486,0.00033828,-0.0001393
 3,-0.00003469,0.19653894,-0.13817357,-0.00799368,-0.21942074,0.1432658
 4,0.00274170,-0.00250420,0.00218457,0.00022547,-0.00048068,0.00024700,
 0.00001545,-0.00004754,0.00008420,0.00014844,0.00003174,0.00017302,0.0
 6202450,-0.03971482,-0.06154130,-0.02354199,0.01479412,0.05857237,0.00
 536486,-0.00193688,-0.00051666,-0.00189361,-0.00216106,-0.00194402,-0.
 00034365,0.00136573,0.00074838,0.00056746,0.00002407,-0.00008283,-0.07
 246033,0.04938107,-0.07974573,-0.01270271,0.01848657,-0.04396012,0.082
 93458,-0.00357595,0.00274629,-0.00871567,-0.00147694,0.00104009,0.0029
 7613,0.00028184,0.00046912,-0.00026399,0.00037561,-0.00060571,-0.00046
 508,0.05982897,-0.06614463,0.10182349,0.00857413,-0.00278160,0.0277909
 2,-0.06496935,0.06634572,-0.00092777,-0.00080838,-0.00651764,-0.000618
 29,0.00120744,-0.00095878,0.00012480,0.00001468,0.00025025,-0.00033332
 ,0.00031291,0.00058067,-0.13492045,0.12663163,-0.40766230,0.01174121,-
 0.00457245,0.00167011,0.12426867,-0.12305943,0.41273592,0.00585661,0.0
 0828135,0.00774419,-0.00149418,-0.00006018,-0.00207711,0.00036850,0.00
 023960,0.00010537,0.00003159,-0.00022677,0.00066673,-0.00013221,-0.001
 30106,-0.00125881,-0.00052690,0.00040865,0.00008814,0.00003160,0.00005
 893,0.00033657,0.39969210,0.00040921,-0.00310372,-0.00153881,0.0002905
 9,0.00024483,0.00042913,-0.00007651,-0.00011987,-0.00001246,-0.0000908
 2,-0.00003810,-0.00019685,-0.00031133,0.00048425,0.00010923,0.00047351
 ,-0.00002089,0.00036231,0.00011379,-0.00010540,0.00001736,0.14755893,0
 .34097137,0.00103674,-0.00005682,-0.00136241,-0.00009873,-0.00001131,0
 .00019655,0.00003118,-0.00000214,-0.00003580,0.00014454,-0.00002807,-0
 .00006979,-0.00043452,-0.00016021,0.00017295,0.00032060,0.00035419,0.0
 0002620,0.00022487,0.00010446,0.00006338,0.06943907,-0.26584700,0.4941
 5766,-0.00059311,0.00005060,-0.00080697,0.00010032,-0.00002084,0.00014
 728,-0.00002827,-0.00000788,-0.00003059,-0.00000365,0.00001338,-0.0000
 5040,0.00001139,0.00009859,0.00020104,0.00004091,-0.00004301,-0.000072
 64,-0.00001152,0.00001140,-0.00004598,-0.11957436,0.05124598,-0.164994
 83,0.10858703,0.00028478,0.00119650,0.00030965,-0.00009662,-0.00012285
 ,-0.00010992,0.00002816,0.00006039,0.00000290,0.00005073,0.00002918,0.
 00006952,0.00006853,-0.00028560,-0.00001058,-0.00014625,0.00011434,-0.
 00017343,-0.00001567,0.00006160,-0.00000538,0.02139063,-0.07069357,0.1
 0915939,-0.03780607,0.07749296,-0.00060351,-0.00023666,-0.00010958,0.0
 0014320,-0.00000614,0.00009413,-0.00003659,-0.00001136,0.00001061,-0.0
 0003598,0.00002469,-0.00001481,0.00017490,0.00005555,0.00004499,-0.000
 11864,-0.00009312,-0.00007106,-0.00007125,-0.00001443,-0.00004210,-0.1
 3344673,0.14855471,-0.37038019,0.14972582,-0.14915781,0.38456725,-0.00
 066883,-0.00056553,-0.00035422,0.00016970,0.00005746,0.00016115,-0.000
 05327,-0.00003416,-0.00002220,-0.00008198,0.00000078,-0.00008922,0.000
 07375,0.00021411,0.00015154,0.00004029,-0.00011564,-0.00002539,-0.0000
 3905,-0.00004012,-0.00005814,-0.21074877,-0.19997596,0.10368296,0.0122
 4019,0.01278216,-0.01635939,0.20410576,-0.00048869,0.00009592,-0.00005
 438,0.00009609,-0.00011122,0.00008565,-0.00001370,0.00002380,0.0000052
 8,0.00003769,0.00007529,0.00001330,0.00019528,-0.00000236,0.00001721,-
 0.00016016,-0.00007629,-0.00007817,-0.00008469,0.00001269,-0.00004530,
 -0.18367811,-0.24883430,0.14544989,-0.01735405,-0.00819693,0.00215823,
 0.19902820,0.25311184,0.00020442,0.00035362,0.00133857,-0.00003179,0.0
 0003390,-0.00030809,0.00000565,0.00000821,0.00004249,-0.00012116,-0.00
 001636,0.00010643,0.00016362,0.00002035,-0.00027240,-0.00014851,-0.000
 12653,0.00008073,-0.00011792,-0.00008770,0.00002691,0.06178586,0.10845
 786,-0.10038582,0.02848074,0.03804373,-0.01615768,-0.09255512,-0.14541
 385,0.11318695,-0.04922831,-0.03751726,-0.02081234,-0.00367201,0.00005
 831,-0.00567542,0.00081982,0.00054735,-0.00015488,-0.00050438,-0.00068
 168,0.00114044,-0.00100172,0.00133575,0.00135596,-0.00058904,0.0004384
 0,0.00045530,-0.00054208,0.00049042,0.00044139,-0.07690964,0.01499858,
 -0.00835092,-0.00662670,-0.00222925,0.00554902,-0.00310318,0.00507998,
 -0.00444365,0.37471386,-0.03922067,-0.05332950,-0.02950836,-0.00079171
 ,0.00031161,-0.00004425,-0.00005541,-0.00031041,-0.00020204,-0.0003991
 0,-0.00059511,-0.00040359,-0.00178231,-0.00071869,-0.00273065,-0.00031
 767,0.00053546,0.00040067,0.00034725,-0.00100444,0.00022475,0.01194142
 ,0.01152366,0.00043443,0.00012968,-0.00033220,-0.00020794,0.00365924,-
 0.00238255,0.00093855,-0.06939623,0.18964780,-0.03695344,-0.04295517,-
 0.03033279,-0.00328852,-0.00013531,-0.00161409,0.00027888,0.00054516,-
 0.00083008,0.00024729,-0.00033560,0.00034484,-0.00139937,-0.00324812,-
 0.00231507,-0.00064335,0.00063692,-0.00012543,0.00039067,-0.00022697,0
 .00043066,-0.01203090,0.00093650,0.01405018,0.00299840,-0.00077351,0.0
 0051916,-0.00132532,0.00204195,-0.00190926,-0.08299691,0.21526344,0.41
 849992,-0.01130026,-0.01419574,-0.01543470,0.00278440,-0.00000281,0.00
 401985,-0.00067194,-0.00041328,-0.00022276,-0.00003134,0.00043605,-0.0
 0124683,0.00001156,0.00258041,0.00268863,0.00109223,-0.00058086,0.0000
 1962,-0.00000108,-0.00001179,-0.00059621,0.01033889,-0.01502070,0.0036
 5783,0.00785220,0.00520910,-0.00554170,-0.00136026,-0.00299330,0.00649
 862,-0.11234941,0.02379650,0.00857208,0.09887732,-0.00783383,0.0030434
 5,0.00038559,-0.00069767,-0.00025668,-0.00100982,0.00016422,0.00013770
 ,0.00000888,0.00004013,-0.00008136,0.00026918,0.00009169,-0.00023101,0
 .00009858,-0.00036349,-0.00004205,-0.00024301,-0.00013180,0.00018715,0
 .00003757,-0.00249369,-0.03030437,0.00981722,0.00282175,0.00050587,-0.
 00102763,-0.01488854,0.00567710,-0.00231529,0.01812072,-0.04744545,-0.
 01737771,-0.00601009,0.06944071,-0.00497114,-0.00024986,0.00056636,-0.
 00020827,0.00012406,-0.00040175,-0.00004179,0.00001872,-0.00007364,-0.
 00022698,-0.00002612,-0.00000300,0.00027600,0.00038116,0.00018399,-0.0
 0009598,-0.00035882,-0.00001142,-0.00020046,-0.00005905,-0.00009013,0.
 01191249,0.00833465,-0.03585692,-0.01495556,0.00254004,0.00137488,0.00
 682395,-0.00392475,0.00418611,-0.03348392,-0.00581751,-0.05980103,-0.0
 0024637,0.00827635,0.08659385,0.00248610,-0.00867855,-0.00848463,-0.00
 088614,0.00023245,0.00005968,-0.00008637,-0.00004336,-0.00034688,0.000
 11143,-0.00011504,-0.00024864,-0.00048005,-0.00089173,-0.00095100,-0.0
 0011797,0.00017109,0.00003635,0.00021628,-0.00019038,0.00010864,-0.005
 68577,-0.00005538,-0.00451349,-0.00201426,0.00064698,0.00048341,-0.000
 71532,0.00031761,0.00034708,-0.11742174,0.07359269,0.12367249,0.002140
 96,0.01226558,0.03493712,0.12245617,-0.00139999,-0.00448065,-0.0097305
 8,0.00032830,-0.00063462,0.00051887,-0.00001720,0.00013938,-0.00003018
 ,0.00011194,0.00023832,0.00017226,-0.00014692,-0.00010583,-0.00023149,
 -0.00006822,-0.00003066,-0.00012185,0.00001729,-0.00011273,-0.00008419
 ,-0.00105496,-0.00039310,0.00086606,0.00087573,0.00028843,-0.00014350,
 -0.00022111,0.00058599,0.00016142,0.07314351,-0.09578491,-0.15597991,0
 .00507035,0.00049750,-0.00943607,-0.07738400,0.09906083,0.00118073,-0.
 00253286,-0.00338212,0.00008778,0.00028139,0.00049825,-0.00016680,-0.0
 0007975,-0.00012472,-0.00012372,-0.00004178,-0.00036449,0.00015880,0.0
 0030739,0.00044533,0.00002970,-0.00013027,-0.00005855,-0.00001910,-0.0
 0004207,-0.00003718,-0.00281425,0.00024741,-0.00057324,-0.00060359,0.0
 0015304,0.00011976,-0.00007064,-0.00027217,0.00009831,0.14907844,-0.17
 637330,-0.33465297,-0.00298170,0.00355447,0.00335790,-0.14474637,0.174
 20056,0.33463002,-0.03203814,-0.01409575,-0.00597482,0.00281296,-0.001
 23921,0.00187342,-0.00104226,-0.00200450,0.00174830,0.00031190,0.00012
 510,0.00026242,-0.00200907,0.00248119,0.00677852,0.00043885,-0.0002736
 9,0.00088885,-0.00190722,0.00081686,0.00019436,-0.00156924,0.00020094,
 -0.00013817,0.00016324,-0.00002041,0.00017869,0.00019954,0.00011242,-0
 .00010666,-0.00298955,-0.00224848,0.00156963,0.00312973,-0.00080045,0.
 00052730,-0.00028804,0.00099324,0.00096248,0.13469180,-0.02185306,-0.0
 2679875,-0.00553190,0.00010564,-0.00205499,0.00402473,-0.00061060,-0.0
 0048256,-0.00145104,0.00049357,0.00043131,0.00030941,0.00080201,0.0031
 3675,0.00065049,-0.00013574,-0.00039599,0.00036545,-0.00025077,-0.0003
 9452,-0.00006618,-0.00165196,0.00063886,-0.00004946,0.00005114,-0.0002
 4848,0.00011160,0.00018206,-0.00000742,-0.00010906,-0.00531840,-0.0005
 4474,0.00124923,0.00323699,-0.00137996,0.00021587,0.00042990,0.0008949
 6,0.00069445,0.02504464,0.50178919,0.00947753,0.00419257,-0.00757649,0
 .00103639,0.00396481,-0.00118564,0.00040999,-0.00187605,-0.00005711,-0
 .00070984,-0.00009228,-0.00064473,0.00599550,-0.00166439,-0.00371801,-
 0.00008463,0.00012110,-0.00165122,-0.00034324,-0.00046898,0.00015149,-
 0.00056244,0.00015690,0.00020869,0.00009662,-0.00001010,-0.00005237,0.
 00005050,0.00000400,-0.00014172,-0.00239291,-0.00174343,-0.00171499,0.
 00092960,-0.00052908,-0.00020167,-0.00007863,0.00011428,-0.00015007,-0
 .19083744,0.12263745,0.53811875,-0.00206566,-0.00278082,0.00467006,-0.
 00040445,-0.00004182,-0.00007237,0.00039962,-0.00002911,-0.00025220,0.
 00017036,0.00003175,0.00005523,-0.00086393,0.00052036,0.00071060,-0.00
 003120,0.00001545,0.00045171,-0.00004997,0.00004313,0.00021655,0.00047
 698,0.00000400,-0.00004928,-0.00010807,-0.00004272,-0.00001785,-0.0000
 5778,-0.00004584,0.00006391,0.00084929,0.00076637,0.00054355,-0.000862
 39,0.00011814,0.00001192,0.00009186,-0.00035637,-0.00002170,-0.0752402
 4,-0.00991768,0.15175685,0.07280693,-0.00076141,0.00189835,0.00249537,
 0.00010544,-0.00127500,0.00051756,-0.00026934,0.00027632,0.00051367,0.
 00016775,0.00001226,0.00031360,-0.00037729,0.00051316,0.00036888,0.000
 12519,0.00016850,0.00014486,-0.00001913,0.00007495,-0.00002042,0.00022
 601,-0.00015035,-0.00004021,-0.00002025,0.00008298,0.00001622,-0.00002
 931,0.00002926,0.00003083,0.00036689,0.00000779,0.00025185,-0.00043919
 ,0.00013948,0.00000875,-0.00028753,-0.00004636,0.00013106,-0.03125770,
 -0.05764219,0.05377886,0.01463992,0.05542477,0.00064154,0.00145093,-0.
 00044100,0.00000594,-0.00015980,0.00038406,0.00011163,0.00016768,-0.00
 026016,0.00007937,0.00001337,-0.00001036,-0.00028957,0.00028090,0.0009
 3326,0.00004580,0.00008638,0.00005905,-0.00000767,0.00004911,0.0000297
 3,-0.00026968,0.00005591,-0.00010840,-0.00002189,-0.00002457,0.0000819
 2,0.00002573,0.00002092,0.00002146,-0.00082457,-0.00051582,-0.00019789
 ,0.00056270,-0.00016850,0.00010154,-0.00014896,-0.00000403,0.00029651,
 0.15561663,-0.00403330,-0.41657873,-0.16388539,-0.00913169,0.43447153,
 0.00010005,-0.01039431,-0.00348703,-0.00058142,-0.00020413,0.00030693,
 0.00025389,0.00054466,-0.00011255,0.00008263,0.00001341,0.00001976,0.0
 0075291,0.00249437,-0.00188752,-0.00045179,-0.00027870,0.00050462,0.00
 083643,-0.00021675,0.00006796,-0.00015520,0.00023517,0.00004216,-0.000
 03536,-0.00010407,-0.00002337,-0.00000080,-0.00004873,-0.00002509,-0.0
 0144522,-0.00002158,0.00036479,0.00034938,-0.00040265,-0.00005830,0.00
 019287,0.00010840,0.00004994,-0.02466426,0.00939226,0.02525616,0.00488
 865,0.01782994,0.00835840,0.01987723,-0.00186421,-0.00476217,-0.000432
 12,0.00006947,0.00032366,0.00003813,0.00006303,-0.00059437,0.00006743,
 -0.00002223,0.00002040,0.00013496,0.00103541,-0.00152003,-0.00065292,0
 .00043890,0.00070833,-0.00052638,-0.00016641,0.00021143,0.00021537,0.0
 0036119,-0.00009930,0.00000958,-0.00004617,0.00004737,-0.00002241,-0.0
 0005364,-0.00000083,0.00002029,0.00056293,0.00042169,0.00010724,-0.000
 66163,0.00011194,-0.00002742,-0.00001035,-0.00011655,-0.00009758,0.022
 16578,-0.41694146,-0.17858565,-0.00292476,0.00048606,0.01191250,-0.018
 94730,0.42170382,-0.00169450,0.00137686,0.00657430,-0.00048622,-0.0002
 8468,-0.00161161,0.00011793,0.00092779,0.00061408,-0.00001191,0.000001
 67,0.00001141,-0.00301820,-0.00219532,-0.00148752,0.00023046,-0.000076
 55,0.00036172,0.00137641,0.00065926,-0.00063099,0.00038150,-0.00006685
 ,-0.00010306,-0.00006745,-0.00001297,0.00001510,-0.00003620,-0.0000078
 3,0.00008701,0.00111496,0.00028505,-0.00035119,-0.00067865,0.00022320,
 0.00007491,-0.00012617,-0.00027164,-0.00010274,0.02645649,-0.11901776,
 -0.10480622,0.00581840,-0.04937918,-0.01878252,-0.02937685,0.16783896,
 0.12013731\\0.00997760,0.00529845,0.01298983,-0.00181200,-0.00568067,-
 0.01212619,0.00766342,0.01024877,0.00029005,-0.00804555,-0.00491657,0.
 00789273,-0.00969510,-0.01131186,-0.00096959,-0.00418491,0.01014808,-0
 .00517046,0.01152533,-0.00174539,0.00512854,-0.00156768,-0.01109242,-0
 .01150447,-0.00111759,0.01119891,-0.00412587,-0.00297553,-0.00192125,0
 .01169026,-0.00363508,0.01136820,-0.01025322,0.00373053,-0.00101939,0.
 01081264,0.00345730,-0.01030160,-0.00269422,-0.01360885,0.00192314,-0.
 00834846,0.00858153,-0.00649206,-0.00569901,0.00170657,0.00429566,0.01
 208743\\\@


 I am not a vegetarian because I love animals;
 I am a vegetarian because I hate plants.
                               -- A. Whitney Brown
 Job cpu time:       0 days  0 hours 28 minutes 47.4 seconds.
 Elapsed time:       0 days  0 hours  1 minutes  2.5 seconds.
 File lengths (MBytes):  RWF=   1771 Int=      0 D2E=      0 Chk=      3 Scr=      1
 Normal termination of Gaussian 16 at Wed May 11 21:33:51 2022.
