 Entering Gaussian System, Link 0=g16
 Initial command:
 /cm/shared/apps/gaussian/intel/EM64T/SSE4_2-enabled/binary//g16/l1.exe "/scratch/florez/25750/Gau-4796.inp" -scrdir="/scratch/florez/25750/"
 Entering Link 1 = /cm/shared/apps/gaussian/intel/EM64T/SSE4_2-enabled/binary//g16/l1.exe PID=      4799.
  
 Copyright (c) 1988,1990,1992,1993,1995,1998,2003,2009,2016,
            Gaussian, Inc.  All Rights Reserved.
  
 This is part of the Gaussian(R) 16 program.  It is based on
 the Gaussian(R) 09 system (copyright 2009, Gaussian, Inc.),
 the Gaussian(R) 03 system (copyright 2003, Gaussian, Inc.),
 the Gaussian(R) 98 system (copyright 1998, Gaussian, Inc.),
 the Gaussian(R) 94 system (copyright 1995, Gaussian, Inc.),
 the Gaussian 92(TM) system (copyright 1992, Gaussian, Inc.),
 the Gaussian 90(TM) system (copyright 1990, Gaussian, Inc.),
 the Gaussian 88(TM) system (copyright 1988, Gaussian, Inc.),
 the Gaussian 86(TM) system (copyright 1986, Carnegie Mellon
 University), and the Gaussian 82(TM) system (copyright 1983,
 Carnegie Mellon University). Gaussian is a federally registered
 trademark of Gaussian, Inc.
  
 This software contains proprietary and confidential information,
 including trade secrets, belonging to Gaussian, Inc.
  
 This software is provided under written license and may be
 used, copied, transmitted, or stored only in accord with that
 written license.
  
 The following legend is applicable only to US Government
 contracts under FAR:
  
                    RESTRICTED RIGHTS LEGEND
  
 Use, reproduction and disclosure by the US Government is
 subject to restrictions as set forth in subparagraphs (a)
 and (c) of the Commercial Computer Software - Restricted
 Rights clause in FAR 52.227-19.
  
 Gaussian, Inc.
 340 Quinnipiac St., Bldg. 40, Wallingford CT 06492
  
  
 ---------------------------------------------------------------
 Warning -- This program may not be used in any manner that
 competes with the business of Gaussian, Inc. or will provide
 assistance to any competitor of Gaussian, Inc.  The licensee
 of this program is prohibited from giving any competitor of
 Gaussian, Inc. access to this program.  By using this program,
 the user acknowledges that Gaussian, Inc. is engaged in the
 business of creating and licensing software in the field of
 computational chemistry and represents and warrants to the
 licensee that it is not a competitor of Gaussian, Inc. and that
 it will not use this program in any manner prohibited above.
 ---------------------------------------------------------------
  

 Cite this work as:
 Gaussian 16, Revision A.03,
 M. J. Frisch, G. W. Trucks, H. B. Schlegel, G. E. Scuseria, 
 M. A. Robb, J. R. Cheeseman, G. Scalmani, V. Barone, 
 G. A. Petersson, H. Nakatsuji, X. Li, M. Caricato, A. V. Marenich, 
 J. Bloino, B. G. Janesko, R. Gomperts, B. Mennucci, H. P. Hratchian, 
 J. V. Ortiz, A. F. Izmaylov, J. L. Sonnenberg, D. Williams-Young, 
 F. Ding, F. Lipparini, F. Egidi, J. Goings, B. Peng, A. Petrone, 
 T. Henderson, D. Ranasinghe, V. G. Zakrzewski, J. Gao, N. Rega, 
 G. Zheng, W. Liang, M. Hada, M. Ehara, K. Toyota, R. Fukuda, 
 J. Hasegawa, M. Ishida, T. Nakajima, Y. Honda, O. Kitao, H. Nakai, 
 T. Vreven, K. Throssell, J. A. Montgomery, Jr., J. E. Peralta, 
 F. Ogliaro, M. J. Bearpark, J. J. Heyd, E. N. Brothers, K. N. Kudin, 
 V. N. Staroverov, T. A. Keith, R. Kobayashi, J. Normand, 
 K. Raghavachari, A. P. Rendell, J. C. Burant, S. S. Iyengar, 
 J. Tomasi, M. Cossi, J. M. Millam, M. Klene, C. Adamo, R. Cammi, 
 J. W. Ochterski, R. L. Martin, K. Morokuma, O. Farkas, 
 J. B. Foresman, and D. J. Fox, Gaussian, Inc., Wallingford CT, 2016.
 
 ******************************************
 Gaussian 16:  ES64L-G16RevA.03 25-Dec-2016
                11-May-2022 
 ******************************************
 %chk=w5s8.chk
 %nproc=28
 Will use up to   28 processors via shared memory.
 %mem=500gb
 ------------------------
 #p MP2(full) SDDAll freq
 ------------------------
 1/10=4,30=1,38=1/1,3;
 2/12=2,17=6,18=5,40=1/2;
 3/5=17,6=6,11=9,25=1,30=1,71=2,140=1/1,2,3;
 4//1;
 5/5=2,38=5,98=1/2;
 8/6=3,8=1,10=90,19=11/1;
 9/15=3,16=-3/6;
 11/6=1,8=1,15=11,17=11,24=-1,27=1,28=-2,29=300,32=6,42=3/1,2,10;
 10/6=2,21=1/2;
 8/6=4,8=1,10=90,19=11/11,4;
 10/5=1,20=4/2;
 11/12=2,14=11,16=1,28=-2,42=3/2,10,12;
 6/7=2,8=2,9=2,10=2/1;
 7/8=1,10=1,12=2,25=1,44=2/1,2,3,16;
 1/10=4,30=1/3;
 99//99;
 Leave Link    1 at Wed May 11 21:33:51 2022, MaxMem= 67108864000 cpu:               1.2 elap:               0.0
 (Enter /cm/shared/apps/gaussian/intel/EM64T/SSE4_2-enabled/binary//g16/l101.exe)
 ----------------------------------------------------------------------
 file 'w5s8.log' Now we use Def2-QZVPPD, but it was opt at: ---' #p ZOR
 A-SR+SO PBE QZ4P'---
 ----------------------------------------------------------------------
 Symbolic Z-matrix:
 Charge =  2 Multiplicity = 1
 Hg(Fragment=1)       -0.09807   0.10092  -0.01378 
 H(Fragment=2)        -0.83865   2.90913  -0.3714 
 O(Fragment=2)        -0.14419   2.41065   0.10001 
 H(Fragment=2)         0.68456   2.9107   -0.02849 
 H(Fragment=2)         2.91606  -0.03126  -0.13818 
 O(Fragment=2)         2.17132  -0.1838   -0.74908 
 H(Fragment=2)         2.49184   0.07059  -1.63411 
 H(Fragment=2)        -0.0858    0.78959   2.89027 
 O(Fragment=2)         0.23316   0.06588   2.3203 
 H(Fragment=2)         0.10189  -0.75767   2.82481 
 H(Fragment=2)        -3.07397   0.05529  -0.54612 
 O(Fragment=2)        -2.25039  -0.15374  -1.02534 
 H(Fragment=2)        -2.42207   0.05502  -1.96229 
 H(Fragment=2)        -0.86098  -2.64263  -0.46562 
 O(Fragment=2)        -0.08957  -2.20307  -0.05931 
 H(Fragment=2)         0.70522  -2.62231  -0.44165 
 
 ITRead=  0  0  0  0  0  0  0  0  0  0  0  0  0  0  0  0
 MicOpt= -1 -1 -1 -1 -1 -1 -1 -1 -1 -1 -1 -1 -1 -1 -1 -1
 NAtoms=     16 NQM=       16 NQMF=       0 NMMI=      0 NMMIF=      0
                NMic=       0 NMicF=      0.
                    Isotopes and Nuclear Properties:
 (Nuclear quadrupole moments (NQMom) in fm**2, nuclear magnetic moments (NMagM)
  in nuclear magnetons)

  Atom         1           2           3           4           5           6           7           8           9          10
 IAtWgt=         202           1          16           1           1          16           1           1          16           1
 AtmWgt= 201.9706000   1.0078250  15.9949146   1.0078250   1.0078250  15.9949146   1.0078250   1.0078250  15.9949146   1.0078250
 NucSpn=           0           1           0           1           1           0           1           1           0           1
 AtZEff=  -0.0000000  -0.0000000  -0.0000000  -0.0000000  -0.0000000  -0.0000000  -0.0000000  -0.0000000  -0.0000000  -0.0000000
 NQMom=    0.0000000   0.0000000   0.0000000   0.0000000   0.0000000   0.0000000   0.0000000   0.0000000   0.0000000   0.0000000
 NMagM=    0.0000000   2.7928460   0.0000000   2.7928460   2.7928460   0.0000000   2.7928460   2.7928460   0.0000000   2.7928460
 AtZNuc=  80.0000000   1.0000000   8.0000000   1.0000000   1.0000000   8.0000000   1.0000000   1.0000000   8.0000000   1.0000000

  Atom        11          12          13          14          15          16
 IAtWgt=           1          16           1           1          16           1
 AtmWgt=   1.0078250  15.9949146   1.0078250   1.0078250  15.9949146   1.0078250
 NucSpn=           1           0           1           1           0           1
 AtZEff=  -0.0000000  -0.0000000  -0.0000000  -0.0000000  -0.0000000  -0.0000000
 NQMom=    0.0000000   0.0000000   0.0000000   0.0000000   0.0000000   0.0000000
 NMagM=    2.7928460   0.0000000   2.7928460   2.7928460   0.0000000   2.7928460
 AtZNuc=   1.0000000   8.0000000   1.0000000   1.0000000   8.0000000   1.0000000
 Leave Link  101 at Wed May 11 21:33:51 2022, MaxMem= 67108864000 cpu:               2.4 elap:               0.1
 (Enter /cm/shared/apps/gaussian/intel/EM64T/SSE4_2-enabled/binary//g16/l103.exe)

 GradGradGradGradGradGradGradGradGradGradGradGradGradGradGradGradGradGrad
 Berny optimization.
 Initialization pass.
 Trust Radius=3.00D-01 FncErr=1.00D-07 GrdErr=1.00D-07 EigMax=2.50D+02 EigMin=1.00D-04
 Number of steps in this run=      2 maximum allowed number of steps=      2.
 GradGradGradGradGradGradGradGradGradGradGradGradGradGradGradGradGradGrad

 Leave Link  103 at Wed May 11 21:33:51 2022, MaxMem= 67108864000 cpu:               0.5 elap:               0.0
 (Enter /cm/shared/apps/gaussian/intel/EM64T/SSE4_2-enabled/binary//g16/l202.exe)
                          Input orientation:                          
 ---------------------------------------------------------------------
 Center     Atomic      Atomic             Coordinates (Angstroms)
 Number     Number       Type             X           Y           Z
 ---------------------------------------------------------------------
      1         80           0       -0.098072    0.100920   -0.013784
      2          1           0       -0.838646    2.909125   -0.371404
      3          8           0       -0.144190    2.410653    0.100013
      4          1           0        0.684558    2.910703   -0.028491
      5          1           0        2.916055   -0.031255   -0.138175
      6          8           0        2.171323   -0.183796   -0.749079
      7          1           0        2.491843    0.070585   -1.634114
      8          1           0       -0.085799    0.789594    2.890270
      9          8           0        0.233161    0.065879    2.320295
     10          1           0        0.101888   -0.757666    2.824810
     11          1           0       -3.073971    0.055292   -0.546118
     12          8           0       -2.250386   -0.153740   -1.025339
     13          1           0       -2.422074    0.055015   -1.962293
     14          1           0       -0.860984   -2.642632   -0.465624
     15          8           0       -0.089572   -2.203070   -0.059313
     16          1           0        0.705218   -2.622312   -0.441653
 ---------------------------------------------------------------------
                    Distance matrix (angstroms):
                    1          2          3          4          5
     1  Hg   0.000000
     2  H    2.926151   0.000000
     3  O    2.312994   0.976206   0.000000
     4  H    2.916780   1.561327   0.976415   0.000000
     5  H    3.019587   4.774726   3.922340   3.694148   0.000000
     6  O    2.402473   4.332287   3.579626   3.507940   0.975243
     7  H    3.055168   4.554547   3.928331   3.729688   1.558256
     8  H    2.984619   3.962033   3.227503   3.689406   4.342396
     9  O    2.357725   4.059318   3.251155   3.716662   3.640251
    10  H    2.972334   4.954366   4.186086   4.683776   4.150481
    11  H    3.023481   3.629265   3.814293   4.748458   6.004525
    12  O    2.391767   3.435372   3.504082   4.358717   5.243489
    13  H    3.033114   3.630994   3.871807   4.641735   5.641850
    14  H    2.883274   5.552601   5.135117   5.780944   4.603535
    15  O    2.304455   5.176200   4.616796   5.172127   3.709015
    16  H    2.871296   5.743278   5.132800   5.548458   3.419572
                    6          7          8          9         10
     6  O    0.000000
     7  H    0.975054   0.000000
     8  H    4.391691   5.256545   0.000000
     9  O    3.638663   4.554011   0.974869   0.000000
    10  H    4.169481   5.126391   1.559976   0.974677   0.000000
    11  H    5.254661   5.671178   4.612714   4.376478   4.702142
    12  O    4.430433   4.786404   4.572451   4.172470   4.552095
    13  H    4.756912   4.924888   5.435545   5.038943   5.472403
    14  H    3.914219   4.468598   4.862418   4.036648   3.912439
    15  O    3.108841   3.783280   4.201915   3.303759   3.231720
    16  H    2.861876   3.444661   4.834100   3.882984   3.809290
                   11         12         13         14         15
    11  H    0.000000
    12  O    0.975520   0.000000
    13  H    1.559013   0.975161   0.000000
    14  H    3.490356   2.904876   3.457502   0.000000
    15  O    3.774098   3.130827   3.763090   0.976412   0.000000
    16  H    4.632790   3.894885   4.388665   1.566517   0.976544
                   16
    16  H    0.000000
 Stoichiometry    H10HgO5(2+)
 Framework group  C1[X(H10HgO5)]
 Deg. of freedom    42
 Full point group                 C1      NOp   1
 Largest Abelian subgroup         C1      NOp   1
 Largest concise Abelian subgroup C1      NOp   1
                         Standard orientation:                         
 ---------------------------------------------------------------------
 Center     Atomic      Atomic             Coordinates (Angstroms)
 Number     Number       Type             X           Y           Z
 ---------------------------------------------------------------------
      1         80           0        0.026823    0.045044   -0.036278
      2          1           0        2.677249    1.143271   -0.612035
      3          8           0        2.310448    0.290672   -0.309531
      4          1           0        2.811480   -0.403237   -0.779470
      5          1           0        0.003876   -2.783538   -1.092925
      6          8           0       -0.296587   -1.907431   -1.398306
      7          1           0       -0.205312   -1.914117   -2.369056
      8          1           0        1.266369   -0.783995    2.549099
      9          8           0        0.460251   -0.985810    2.039378
     10          1           0       -0.254508   -1.100247    2.692079
     11          1           0       -0.250387    3.020031    0.426371
     12          8           0       -0.512601    2.365564   -0.247838
     13          1           0       -0.497475    2.835985   -1.101895
     14          1           0       -2.782700    0.624114    0.254457
     15          8           0       -2.239544   -0.185263    0.311648
     16          1           0       -2.690192   -0.863646   -0.227194
 ---------------------------------------------------------------------
 Rotational constants (GHZ):           1.5590682           1.5203206           1.2451290
 Leave Link  202 at Wed May 11 21:33:51 2022, MaxMem= 67108864000 cpu:               0.6 elap:               0.0
 (Enter /cm/shared/apps/gaussian/intel/EM64T/SSE4_2-enabled/binary//g16/l301.exe)
 Standard basis: SDDAll (6D, 10F)
 Ernie: Thresh=  0.10000D-02 Tol=  0.10000D-05 Strict=F.
 There are   114 symmetry adapted cartesian basis functions of A   symmetry.
 There are   114 symmetry adapted basis functions of A   symmetry.
   114 basis functions,   200 primitive gaussians,   114 cartesian basis functions
    29 alpha electrons       29 beta electrons
       nuclear repulsion energy       293.6845593415 Hartrees.
 IExCor=    0 DFT=F Ex=HF Corr=None ExCW=0 ScaHFX=  1.000000
 ScaDFX=  1.000000  1.000000  1.000000  1.000000 ScalE2=  1.000000  1.000000
 IRadAn=      5 IRanWt=     -1 IRanGd=            0 ICorTp=0 IEmpDi=  4
 NAtoms=   16 NActive=   16 NUniq=   16 SFac= 1.00D+00 NAtFMM=   60 NAOKFM=F Big=F
 Integral buffers will be    131072 words long.
 Raffenetti 1 integral format.
 Two-electron integral symmetry is turned on.
 Leave Link  301 at Wed May 11 21:33:52 2022, MaxMem= 67108864000 cpu:               1.5 elap:               0.1
 (Enter /cm/shared/apps/gaussian/intel/EM64T/SSE4_2-enabled/binary//g16/l302.exe)
 NPDir=0 NMtPBC=     1 NCelOv=     1 NCel=       1 NClECP=     1 NCelD=      1
         NCelK=      1 NCelE2=     1 NClLst=     1 CellRange=     0.0.
 One-electron integrals computed using PRISM.
 One-electron integral symmetry used in STVInt
   1 Symmetry operations used in ECPInt.
 ECPInt:  NShTT=    1770 NPrTT=    5742 LenC2=    1771 LenP2D=    4765.
 LDataN:  DoStor=T MaxTD1= 7 Len=  274
 NBasis=   114 RedAO= T EigKep=  3.88D-04  NBF=   114
 NBsUse=   114 1.00D-06 EigRej= -1.00D+00 NBFU=   114
 Leave Link  302 at Wed May 11 21:33:52 2022, MaxMem= 67108864000 cpu:               6.4 elap:               0.3
 (Enter /cm/shared/apps/gaussian/intel/EM64T/SSE4_2-enabled/binary//g16/l303.exe)
 DipDrv:  MaxL=1.
 Leave Link  303 at Wed May 11 21:33:52 2022, MaxMem= 67108864000 cpu:               0.9 elap:               0.1
 (Enter /cm/shared/apps/gaussian/intel/EM64T/SSE4_2-enabled/binary//g16/l401.exe)
 ExpMin= 2.00D-02 ExpMax= 4.71D+01 ExpMxC= 4.71D+01 IAcc=3 IRadAn=         5 AccDes= 0.00D+00
 Harris functional with IExCor=  205 and IRadAn=       5 diagonalized for initial guess.
 HarFok:  IExCor=  205 AccDes= 0.00D+00 IRadAn=         5 IDoV= 1 UseB2=F ITyADJ=14
 ICtDFT=  3500011 ScaDFX=  1.000000  1.000000  1.000000  1.000000
 Defaulting to unpruned grid for atomic number  80.
 FoFCou: FMM=F IPFlag=           0 FMFlag=      100000 FMFlg1=           0
         NFxFlg=           0 DoJE=T BraDBF=F KetDBF=T FulRan=T
         wScrn=  0.000000 ICntrl=       500 IOpCl=  0 I1Cent=   200000004 NGrid=           0
         NMat0=    1 NMatS0=      1 NMatT0=    0 NMatD0=    1 NMtDS0=    0 NMtDT0=    0
 Petite list used in FoFCou.
 Harris En= -239.781836833303    
 JPrj=0 DoOrth=F DoCkMO=F.
 Leave Link  401 at Wed May 11 21:33:52 2022, MaxMem= 67108864000 cpu:               8.8 elap:               0.4
 (Enter /cm/shared/apps/gaussian/intel/EM64T/SSE4_2-enabled/binary//g16/l502.exe)
 Integral symmetry usage will be decided dynamically.
 Closed shell SCF:
 Using DIIS extrapolation, IDIIS=  1040.
 NGot= 67108864000 LenX= 67108833259 LenY= 67108819822
 Requested convergence on RMS density matrix=1.00D-08 within 128 cycles.
 Requested convergence on MAX density matrix=1.00D-06.
 Requested convergence on             energy=1.00D-06.
 No special actions if energy rises.
 Fock matrices will be formed incrementally for  20 cycles.

 Cycle   1  Pass 0  IDiag  1:
 FoFJK:  IHMeth= 1 ICntrl=       0 DoSepK=F KAlg= 0 I1Cent=           0 FoldK=F
 IRaf= 990000000 NMat=       1 IRICut=       1 DoRegI=T DoRafI=F ISym2E= 0 IDoP0=0 IntGTp=1.
 FoFCou: FMM=F IPFlag=           0 FMFlag=      100000 FMFlg1=           0
         NFxFlg=           0 DoJE=F BraDBF=F KetDBF=F FulRan=T
         wScrn=  0.000000 ICntrl=         0 IOpCl=  0 I1Cent=           0 NGrid=           0
         NMat0=    1 NMatS0=      1 NMatT0=    0 NMatD0=    1 NMtDS0=    0 NMtDT0=    0
 Symmetry not used in FoFCou.
 E= -236.131335032269    
 DIIS: error= 4.34D-02 at cycle   1 NSaved=   1.
 NSaved= 1 IEnMin= 1 EnMin= -236.131335032269     IErMin= 1 ErrMin= 4.34D-02
 ErrMax= 4.34D-02  0.00D+00 EMaxC= 1.00D-01 BMatC= 5.10D-01 BMatP= 5.10D-01
 IDIUse=3 WtCom= 5.66D-01 WtEn= 4.34D-01
 Coeff-Com:  0.100D+01
 Coeff-En:   0.100D+01
 Coeff:      0.100D+01
 Gap=     0.707 Goal=   None    Shift=    0.000
 GapD=    0.707 DampG=2.000 DampE=0.250 DampFc=0.5000 IDamp=-1.
 Damping current iteration by 5.00D-01
 RMSDP=7.43D-03 MaxDP=1.75D-01              OVMax= 1.29D-01

 Cycle   2  Pass 0  IDiag  1:
 RMSU=  3.71D-03    CP:  1.00D+00
 E= -236.341050175331     Delta-E=       -0.209715143062 Rises=F Damp=T
 DIIS: error= 1.22D-02 at cycle   2 NSaved=   2.
 NSaved= 2 IEnMin= 2 EnMin= -236.341050175331     IErMin= 2 ErrMin= 1.22D-02
 ErrMax= 1.22D-02  0.00D+00 EMaxC= 1.00D-01 BMatC= 3.51D-02 BMatP= 5.10D-01
 IDIUse=3 WtCom= 8.78D-01 WtEn= 1.22D-01
 Coeff-Com: -0.262D+00 0.126D+01
 Coeff-En:   0.000D+00 0.100D+01
 Coeff:     -0.230D+00 0.123D+01
 Gap=     0.558 Goal=   None    Shift=    0.000
 RMSDP=2.28D-03 MaxDP=4.81D-02 DE=-2.10D-01 OVMax= 6.76D-02

 Cycle   3  Pass 0  IDiag  1:
 RMSU=  1.75D-03    CP:  1.00D+00  1.39D+00
 E= -236.520254346191     Delta-E=       -0.179204170860 Rises=F Damp=F
 DIIS: error= 5.55D-03 at cycle   3 NSaved=   3.
 NSaved= 3 IEnMin= 3 EnMin= -236.520254346191     IErMin= 3 ErrMin= 5.55D-03
 ErrMax= 5.55D-03  0.00D+00 EMaxC= 1.00D-01 BMatC= 1.95D-03 BMatP= 3.51D-02
 IDIUse=3 WtCom= 9.44D-01 WtEn= 5.55D-02
 Coeff-Com:  0.356D-01-0.158D+00 0.112D+01
 Coeff-En:   0.000D+00 0.000D+00 0.100D+01
 Coeff:      0.336D-01-0.150D+00 0.112D+01
 Gap=     0.537 Goal=   None    Shift=    0.000
 RMSDP=7.24D-04 MaxDP=2.08D-02 DE=-1.79D-01 OVMax= 1.55D-02

 Cycle   4  Pass 0  IDiag  1:
 RMSU=  4.44D-04    CP:  9.95D-01  1.35D+00  1.30D+00
 E= -236.522378026284     Delta-E=       -0.002123680093 Rises=F Damp=F
 DIIS: error= 1.28D-03 at cycle   4 NSaved=   4.
 NSaved= 4 IEnMin= 4 EnMin= -236.522378026284     IErMin= 4 ErrMin= 1.28D-03
 ErrMax= 1.28D-03  0.00D+00 EMaxC= 1.00D-01 BMatC= 2.77D-04 BMatP= 1.95D-03
 IDIUse=3 WtCom= 9.87D-01 WtEn= 1.28D-02
 Coeff-Com:  0.243D-01-0.116D+00 0.313D+00 0.779D+00
 Coeff-En:   0.000D+00 0.000D+00 0.000D+00 0.100D+01
 Coeff:      0.239D-01-0.115D+00 0.309D+00 0.782D+00
 Gap=     0.541 Goal=   None    Shift=    0.000
 RMSDP=1.98D-04 MaxDP=3.96D-03 DE=-2.12D-03 OVMax= 4.90D-03

 Cycle   5  Pass 0  IDiag  1:
 RMSU=  1.39D-04    CP:  9.95D-01  1.37D+00  1.36D+00  9.70D-01
 E= -236.522703878546     Delta-E=       -0.000325852262 Rises=F Damp=F
 DIIS: error= 4.22D-04 at cycle   5 NSaved=   5.
 NSaved= 5 IEnMin= 5 EnMin= -236.522703878546     IErMin= 5 ErrMin= 4.22D-04
 ErrMax= 4.22D-04  0.00D+00 EMaxC= 1.00D-01 BMatC= 1.25D-05 BMatP= 2.77D-04
 IDIUse=3 WtCom= 9.96D-01 WtEn= 4.22D-03
 Coeff-Com: -0.129D-01 0.481D-01-0.145D+00-0.290D+00 0.140D+01
 Coeff-En:   0.000D+00 0.000D+00 0.000D+00 0.000D+00 0.100D+01
 Coeff:     -0.129D-01 0.479D-01-0.145D+00-0.289D+00 0.140D+01
 Gap=     0.541 Goal=   None    Shift=    0.000
 RMSDP=1.09D-04 MaxDP=2.66D-03 DE=-3.26D-04 OVMax= 3.51D-03

 Cycle   6  Pass 0  IDiag  1:
 RMSU=  4.68D-05    CP:  9.95D-01  1.38D+00  1.39D+00  1.07D+00  1.50D+00
 E= -236.522746475947     Delta-E=       -0.000042597401 Rises=F Damp=F
 DIIS: error= 1.22D-04 at cycle   6 NSaved=   6.
 NSaved= 6 IEnMin= 6 EnMin= -236.522746475947     IErMin= 6 ErrMin= 1.22D-04
 ErrMax= 1.22D-04  0.00D+00 EMaxC= 1.00D-01 BMatC= 9.39D-07 BMatP= 1.25D-05
 IDIUse=3 WtCom= 9.99D-01 WtEn= 1.22D-03
 Coeff-Com:  0.425D-02-0.121D-01 0.307D-01 0.818D-01-0.550D+00 0.145D+01
 Coeff-En:   0.000D+00 0.000D+00 0.000D+00 0.000D+00 0.000D+00 0.100D+01
 Coeff:      0.424D-02-0.121D-01 0.307D-01 0.817D-01-0.549D+00 0.144D+01
 Gap=     0.541 Goal=   None    Shift=    0.000
 RMSDP=3.88D-05 MaxDP=1.26D-03 DE=-4.26D-05 OVMax= 1.34D-03

 Cycle   7  Pass 0  IDiag  1:
 RMSU=  8.22D-06    CP:  9.95D-01  1.38D+00  1.40D+00  1.10D+00  1.66D+00
                    CP:  1.55D+00
 E= -236.522749956446     Delta-E=       -0.000003480498 Rises=F Damp=F
 DIIS: error= 2.98D-05 at cycle   7 NSaved=   7.
 NSaved= 7 IEnMin= 7 EnMin= -236.522749956446     IErMin= 7 ErrMin= 2.98D-05
 ErrMax= 2.98D-05  0.00D+00 EMaxC= 1.00D-01 BMatC= 7.00D-08 BMatP= 9.39D-07
 IDIUse=1 WtCom= 1.00D+00 WtEn= 0.00D+00
 Coeff-Com:  0.960D-03-0.339D-02 0.113D-01 0.193D-01-0.111D+00 0.939D-01
 Coeff-Com:  0.989D+00
 Coeff:      0.960D-03-0.339D-02 0.113D-01 0.193D-01-0.111D+00 0.939D-01
 Coeff:      0.989D+00
 Gap=     0.541 Goal=   None    Shift=    0.000
 RMSDP=7.19D-06 MaxDP=2.68D-04 DE=-3.48D-06 OVMax= 2.42D-04

 Initial convergence to 1.0D-05 achieved.  Increase integral accuracy.
 Cycle   8  Pass 1  IDiag  1:
 E= -236.522750137370     Delta-E=       -0.000000180924 Rises=F Damp=F
 DIIS: error= 1.09D-05 at cycle   1 NSaved=   1.
 NSaved= 1 IEnMin= 1 EnMin= -236.522750137370     IErMin= 1 ErrMin= 1.09D-05
 ErrMax= 1.09D-05  0.00D+00 EMaxC= 1.00D-01 BMatC= 1.38D-08 BMatP= 1.38D-08
 IDIUse=1 WtCom= 1.00D+00 WtEn= 0.00D+00
 Coeff-Com:  0.100D+01
 Coeff:      0.100D+01
 Gap=     0.541 Goal=   None    Shift=    0.000
 RMSDP=7.19D-06 MaxDP=2.68D-04 DE=-1.81D-07 OVMax= 7.02D-05

 Cycle   9  Pass 1  IDiag  1:
 RMSU=  2.19D-06    CP:  1.00D+00
 E= -236.522750163672     Delta-E=       -0.000000026303 Rises=F Damp=F
 DIIS: error= 6.58D-06 at cycle   2 NSaved=   2.
 NSaved= 2 IEnMin= 2 EnMin= -236.522750163672     IErMin= 2 ErrMin= 6.58D-06
 ErrMax= 6.58D-06  0.00D+00 EMaxC= 1.00D-01 BMatC= 4.58D-09 BMatP= 1.38D-08
 IDIUse=1 WtCom= 1.00D+00 WtEn= 0.00D+00
 Coeff-Com:  0.271D+00 0.729D+00
 Coeff:      0.271D+00 0.729D+00
 Gap=     0.541 Goal=   None    Shift=    0.000
 RMSDP=8.71D-07 MaxDP=2.87D-05 DE=-2.63D-08 OVMax= 2.81D-05

 Cycle  10  Pass 1  IDiag  1:
 RMSU=  5.62D-07    CP:  1.00D+00  1.30D+00
 E= -236.522750170559     Delta-E=       -0.000000006887 Rises=F Damp=F
 DIIS: error= 4.13D-06 at cycle   3 NSaved=   3.
 NSaved= 3 IEnMin= 3 EnMin= -236.522750170559     IErMin= 3 ErrMin= 4.13D-06
 ErrMax= 4.13D-06  0.00D+00 EMaxC= 1.00D-01 BMatC= 8.74D-10 BMatP= 4.58D-09
 IDIUse=1 WtCom= 1.00D+00 WtEn= 0.00D+00
 Coeff-Com: -0.385D+00-0.292D+00 0.168D+01
 Coeff:     -0.385D+00-0.292D+00 0.168D+01
 Gap=     0.541 Goal=   None    Shift=    0.000
 RMSDP=1.46D-06 MaxDP=5.16D-05 DE=-6.89D-09 OVMax= 5.08D-05

 Cycle  11  Pass 1  IDiag  1:
 RMSU=  1.61D-07    CP:  1.00D+00  1.94D+00  1.80D+00
 E= -236.522750174439     Delta-E=       -0.000000003880 Rises=F Damp=F
 DIIS: error= 5.35D-07 at cycle   4 NSaved=   4.
 NSaved= 4 IEnMin= 4 EnMin= -236.522750174439     IErMin= 4 ErrMin= 5.35D-07
 ErrMax= 5.35D-07  0.00D+00 EMaxC= 1.00D-01 BMatC= 1.85D-11 BMatP= 8.74D-10
 IDIUse=1 WtCom= 1.00D+00 WtEn= 0.00D+00
 Coeff-Com: -0.100D-01-0.204D-01 0.163D-01 0.101D+01
 Coeff:     -0.100D-01-0.204D-01 0.163D-01 0.101D+01
 Gap=     0.541 Goal=   None    Shift=    0.000
 RMSDP=1.24D-07 MaxDP=3.70D-06 DE=-3.88D-09 OVMax= 4.22D-06

 Cycle  12  Pass 1  IDiag  1:
 RMSU=  5.07D-08    CP:  1.00D+00  1.98D+00  1.86D+00  1.28D+00
 E= -236.522750174498     Delta-E=       -0.000000000059 Rises=F Damp=F
 DIIS: error= 1.99D-07 at cycle   5 NSaved=   5.
 NSaved= 5 IEnMin= 5 EnMin= -236.522750174498     IErMin= 5 ErrMin= 1.99D-07
 ErrMax= 1.99D-07  0.00D+00 EMaxC= 1.00D-01 BMatC= 3.30D-12 BMatP= 1.85D-11
 IDIUse=1 WtCom= 1.00D+00 WtEn= 0.00D+00
 Coeff-Com:  0.794D-01 0.592D-01-0.349D+00 0.398D-01 0.117D+01
 Coeff:      0.794D-01 0.592D-01-0.349D+00 0.398D-01 0.117D+01
 Gap=     0.541 Goal=   None    Shift=    0.000
 RMSDP=6.60D-08 MaxDP=1.77D-06 DE=-5.95D-11 OVMax= 2.21D-06

 Cycle  13  Pass 1  IDiag  1:
 RMSU=  1.12D-08    CP:  1.00D+00  2.00D+00  1.90D+00  1.52D+00  1.23D+00
 E= -236.522750174505     Delta-E=       -0.000000000007 Rises=F Damp=F
 DIIS: error= 1.88D-08 at cycle   6 NSaved=   6.
 NSaved= 6 IEnMin= 6 EnMin= -236.522750174505     IErMin= 6 ErrMin= 1.88D-08
 ErrMax= 1.88D-08  0.00D+00 EMaxC= 1.00D-01 BMatC= 5.18D-14 BMatP= 3.30D-12
 IDIUse=1 WtCom= 1.00D+00 WtEn= 0.00D+00
 Coeff-Com: -0.222D-01-0.169D-01 0.986D-01-0.911D-02-0.396D+00 0.135D+01
 Coeff:     -0.222D-01-0.169D-01 0.986D-01-0.911D-02-0.396D+00 0.135D+01
 Gap=     0.541 Goal=   None    Shift=    0.000
 RMSDP=6.08D-09 MaxDP=1.56D-07 DE=-6.71D-12 OVMax= 1.58D-07

 SCF Done:  E(RHF) =  -236.522750175     A.U. after   13 cycles
            NFock= 13  Conv=0.61D-08     -V/T= 2.9933
 KE= 1.186574962781D+02 PE=-1.092428125004D+03 EE= 4.435633192101D+02
 Leave Link  502 at Wed May 11 21:33:54 2022, MaxMem= 67108864000 cpu:              52.2 elap:               1.9
 (Enter /cm/shared/apps/gaussian/intel/EM64T/SSE4_2-enabled/binary//g16/l801.exe)
 Range of M.O.s used for correlation:     1   114
 NBasis=   114 NAE=    29 NBE=    29 NFC=     0 NFV=     0
 NROrb=    114 NOA=    29 NOB=    29 NVA=    85 NVB=    85

 **** Warning!!: The largest alpha MO coefficient is  0.28630034D+02

 Leave Link  801 at Wed May 11 21:33:54 2022, MaxMem= 67108864000 cpu:               0.5 elap:               0.0
 (Enter /cm/shared/apps/gaussian/intel/EM64T/SSE4_2-enabled/binary//g16/l906.exe)
 FulOut=F Deriv=T AODrv=T NAtomX=    16
   MMem=           0  MDisk=          29 MDiskD=          29
  W3Min=      376884 MinDsk=     1164521 NBas6D=         114
 NBas2D=        6660    NTT=        6555    LW2=     3308096
    MDV= 67108668635 MDiskM=     8175763 NBas2p=        6659
 Disk-based method using ON**2 memory for 29 occupieds at a time.
 Permanent disk used for amplitudes=     7525645 words.
 Estimated scratch disk usage=    84138022 words.
 IMap=   1   2   3   4   5   6   7   8   9  10  11  12  13  14  15  16  17  18  19  20
 IMap=  21  22  23  24  25  26  27  28  29
 Actual    scratch disk usage=    77064742 words.
 JobTyp=1 Pass  1:  I=   1 to  29 NPSUse= 28 ParTrn=T ParDer=T DoDerP=T.
 (rs|ai) integrals will be sorted in core.
 Spin components of T(2) and E(2):
     alpha-alpha T2 =       0.2963611182D-01 E2=     -0.9651686468D-01
     alpha-beta  T2 =       0.1753917234D+00 E2=     -0.5810053123D+00
     beta-beta   T2 =       0.2963611182D-01 E2=     -0.9651686468D-01
 The integrals were generated   1 times.
 ANorm=    0.1111154331D+01
 E2 =    -0.7740390417D+00 EUMP2 =    -0.23729678921618D+03
 Leave Link  906 at Wed May 11 21:34:05 2022, MaxMem= 67108864000 cpu:             294.8 elap:              10.6
 (Enter /cm/shared/apps/gaussian/intel/EM64T/SSE4_2-enabled/binary//g16/l1101.exe)
 Using compressed Sx but separate Hx and Fx, NAtomX=    16.
 Will process     17 centers per pass.
   1 Symmetry operations used in ECPInt.
 ECPInt:  NShTT=    1770 NPrTT=    5742 LenC2=    1771 LenP2D=    4765.
 LDataN:  DoStor=T MaxTD1= 8 Len=  415
 Leave Link 1101 at Wed May 11 21:34:05 2022, MaxMem= 67108864000 cpu:              11.3 elap:               0.4
 (Enter /cm/shared/apps/gaussian/intel/EM64T/SSE4_2-enabled/binary//g16/l1102.exe)
 Leave Link 1102 at Wed May 11 21:34:05 2022, MaxMem= 67108864000 cpu:               1.3 elap:               0.1
 (Enter /cm/shared/apps/gaussian/intel/EM64T/SSE4_2-enabled/binary//g16/l1110.exe)
 Forming Gx(P) for the SCF density, NAtomX=    16.
 Integral derivatives from FoFJK, PRISM(SPDF).
 Do as many integral derivatives as possible in FoFJK.
 G2DrvN: MDV=   67108862680.
 G2DrvN: will do    17 centers at a time, making    1 passes.
 Calling FoFCou, ICntrl=  3107 FMM=F I1Cent=   0 AccDes= 0.00D+00.
 FoFJK:  IHMeth= 1 ICntrl=    3107 DoSepK=F KAlg= 0 I1Cent=           0 FoldK=F
 IRaf=         0 NMat=       1 IRICut=       1 DoRegI=T DoRafI=F ISym2E= 0 IDoP0=0 IntGTp=1.
 FoFCou: FMM=F IPFlag=           0 FMFlag=      100000 FMFlg1=           0
         NFxFlg=           0 DoJE=F BraDBF=F KetDBF=F FulRan=T
         wScrn=  0.000000 ICntrl=      3107 IOpCl=  0 I1Cent=           0 NGrid=           0
         NMat0=    1 NMatS0=      1 NMatT0=    0 NMatD0=    1 NMtDS0=    0 NMtDT0=    0
 Symmetry not used in FoFCou.
 End of G2Drv F.D. properties file   721 does not exist.
 End of G2Drv F.D. properties file   722 does not exist.
 End of G2Drv F.D. properties file   788 does not exist.
 Leave Link 1110 at Wed May 11 21:34:06 2022, MaxMem= 67108864000 cpu:              12.0 elap:               0.5
 (Enter /cm/shared/apps/gaussian/intel/EM64T/SSE4_2-enabled/binary//g16/l1002.exe)
 Minotr:  Closed shell wavefunction.
          IDoAtm=1111111111111111
          Direct CPHF calculation.
          Differentiating once with respect to electric field.
                with respect to dipole field.
          Differentiating once with respect to nuclear coordinates.
          Requested convergence is 1.0D-08 RMS, and 1.0D-07 maximum.
          Secondary convergence is 1.0D-12 RMS, and 1.0D-12 maximum.
          NewPWx=T KeepS1=T KeepF1=T KeepIn=T MapXYZ=F SortEE=F KeepMc=T.
 Keep R1 ints in memory in canonical form, NReq=27453482.
 FoFCou: FMM=F IPFlag=           0 FMFlag=           0 FMFlg1=           0
         NFxFlg=           0 DoJE=F BraDBF=F KetDBF=F FulRan=T
         wScrn=  0.000000 ICntrl=       600 IOpCl=  0 I1Cent=           0 NGrid=           0
         NMat0=    1 NMatS0=   6555 NMatT0=    0 NMatD0=    1 NMtDS0=    0 NMtDT0=    0
 Symmetry not used in FoFCou.
 Two-electron integral symmetry not used.
          MDV=   67108864000 using IRadAn=       1.
          Solving linear equations simultaneously, MaxMat=       0.
          There are    51 degrees of freedom in the 1st order CPHF.  IDoFFX=6 NUNeed=    51.
     48 vectors produced by pass  0 Test12= 4.83D-15 1.96D-09 XBig12= 8.21D+00 9.31D-01.
 AX will form    48 AO Fock derivatives at one time.
     48 vectors produced by pass  1 Test12= 4.83D-15 1.96D-09 XBig12= 1.29D-01 8.93D-02.
     48 vectors produced by pass  2 Test12= 4.83D-15 1.96D-09 XBig12= 1.46D-03 5.89D-03.
     48 vectors produced by pass  3 Test12= 4.83D-15 1.96D-09 XBig12= 9.68D-06 3.98D-04.
     48 vectors produced by pass  4 Test12= 4.83D-15 1.96D-09 XBig12= 7.65D-08 3.84D-05.
     48 vectors produced by pass  5 Test12= 4.83D-15 1.96D-09 XBig12= 3.32D-10 2.56D-06.
     34 vectors produced by pass  6 Test12= 4.83D-15 1.96D-09 XBig12= 1.34D-12 1.56D-07.
      3 vectors produced by pass  7 Test12= 4.83D-15 1.96D-09 XBig12= 5.35D-15 1.03D-08.
 InvSVY:  IOpt=1 It=  1 EMax= 1.78D-15
 Solved reduced A of dimension   325 with    51 vectors.
 FullF1:  Do perturbations      1 to      51.
 Saving first derivative matrices.
 End of Minotr F.D. properties file   721 does not exist.
 End of Minotr F.D. properties file   722 does not exist.
 End of Minotr F.D. properties file   788 does not exist.
 Leave Link 1002 at Wed May 11 21:34:07 2022, MaxMem= 67108864000 cpu:              29.2 elap:               1.1
 (Enter /cm/shared/apps/gaussian/intel/EM64T/SSE4_2-enabled/binary//g16/l811.exe)
 MDV= 67108864000.
 Form MO integral derivatives with frozen-active canonical formalism.
 MOERI=1 MOERIx=1 NAtoms=    16 NAtomX=    16.
 Discarding MO integrals.
 MO basis two electron integral derivatives will not be stored on disk.
 IAlg= 3 DoFC=T DoPWx=T Debug=F.
 Reordered first order wavefunction length =     12152450
 In DefCFB: NBatch=  1 ICI= 29 ICA= 85 LFMax= 85
            Large arrays: LIAPS=   128140560 LIARS=    76715730 words.
 In StABat: MaxSiz= 39 MinSiz= 37 NAtomB=  3
 DoIAMN: NPSUse= 28.
 Leave Link  811 at Wed May 11 21:34:29 2022, MaxMem= 67108864000 cpu:             632.1 elap:              22.6
 (Enter /cm/shared/apps/gaussian/intel/EM64T/SSE4_2-enabled/binary//g16/l804.exe)
 Closed-shell transformation, MDV= 67108864000 ITran=4 ISComp=1.
 Semi-Direct transformation.
 ModeAB=           2 MOrb=            29 LenV=   67108399874
 LASXX=     17409106 LTotXX=    17409106 LenRXX=    17409106
 LTotAB=    17937225 MaxLAS=    21670830 LenRXY=    21670830
 NonZer=    34818212 LenScr=    52992000 LnRSAI=           0
 LnScr1=           0 LExtra=           0 Total=     92071936
 MaxDsk=          -1 SrtSym=           F ITran=            4
 DoSDTr:  NPSUse= 28
 JobTyp=0 Pass  1:  I=   1 to  29.
 (rs|ai) integrals will be sorted in core.
 Complete sort for first half transformation.
 First half transformation complete.
 Begin second half transformation for I=  10.
 Begin second half transformation for I=  20.
 Begin second half transformation for I=  10.
 Begin second half transformation for I=  20.
 Complete sort for second half transformation.
 Second half transformation complete.
 SymMOI:  orbitals are not symmetric.
 Spin components of T(2) and E(2):
     alpha-alpha T2 =       0.2963611182D-01 E2=     -0.9651686468D-01
     alpha-beta  T2 =       0.1753917234D+00 E2=     -0.5810053123D+00
     beta-beta   T2 =       0.2963611182D-01 E2=     -0.9651686468D-01
 ANorm=    0.1571409525D+01
 E2 =    -0.7740390417D+00 EUMP2 =    -0.23729678921618D+03
 Leave Link  804 at Wed May 11 21:34:33 2022, MaxMem= 67108864000 cpu:              96.0 elap:               3.5
 (Enter /cm/shared/apps/gaussian/intel/EM64T/SSE4_2-enabled/binary//g16/l1002.exe)
 Minotr:  Closed shell wavefunction.
          Computing MP2/KS-MP2 derivatives.
          Using Z-Vector for PSCF gradient.
          Skipping F1 and S1 gradient terms here.
          IDoAtm=1111111111111111
          Using MO integrals in the linear equations.
          Forming densities via direct SCF.
          Differentiating once with respect to electric field.
                with respect to dipole field.
          Differentiating once with respect to nuclear coordinates.
          Requested convergence is 1.0D-10 RMS, and 1.0D-09 maximum.
          NewPWx=F KeepS1=T KeepF1=T KeepIn=T MapXYZ=F SortEE=F KeepMc=T.
          MDV=   67108864000 using IRadAn=       5.
          Solving linear equations separately, MaxMat=       0.
          There are     1 degrees of freedom in the 1st order CPHF.  IDoFFX=0 NUNeed=     1.
 FoFJK:  IHMeth= 1 ICntrl=       0 DoSepK=F KAlg= 0 I1Cent=           0 FoldK=F
 IRaf=         0 NMat=       1 IRICut=       1 DoRegI=T DoRafI=F ISym2E= 0 IDoP0=0 IntGTp=1.
 FoFCou: FMM=F IPFlag=           0 FMFlag=      100000 FMFlg1=           0
         NFxFlg=           0 DoJE=F BraDBF=F KetDBF=F FulRan=T
         wScrn=  0.000000 ICntrl=         0 IOpCl=  0 I1Cent=           0 NGrid=           0
         NMat0=    1 NMatS0=      1 NMatT0=    0 NMatD0=    1 NMtDS0=    0 NMtDT0=    0
 Symmetry not used in FoFCou.
 LinEq1:  Iter=  0 NonCon=     1 RMS=6.48D-03 Max=1.12D-01 NDo=     1
 LinEq1:  Iter=  1 NonCon=     1 RMS=1.43D-03 Max=1.72D-02 NDo=     1
 LinEq1:  Iter=  2 NonCon=     1 RMS=4.07D-04 Max=4.29D-03 NDo=     1
 LinEq1:  Iter=  3 NonCon=     1 RMS=1.26D-04 Max=1.49D-03 NDo=     1
 LinEq1:  Iter=  4 NonCon=     1 RMS=3.41D-05 Max=5.09D-04 NDo=     1
 LinEq1:  Iter=  5 NonCon=     1 RMS=4.67D-06 Max=7.79D-05 NDo=     1
 LinEq1:  Iter=  6 NonCon=     1 RMS=1.01D-06 Max=1.84D-05 NDo=     1
 LinEq1:  Iter=  7 NonCon=     1 RMS=4.32D-07 Max=4.15D-06 NDo=     1
 LinEq1:  Iter=  8 NonCon=     1 RMS=9.21D-08 Max=9.09D-07 NDo=     1
 LinEq1:  Iter=  9 NonCon=     1 RMS=1.30D-08 Max=9.05D-08 NDo=     1
 LinEq1:  Iter= 10 NonCon=     1 RMS=2.65D-09 Max=2.05D-08 NDo=     1
 LinEq1:  Iter= 11 NonCon=     1 RMS=1.16D-09 Max=8.77D-09 NDo=     1
 LinEq1:  Iter= 12 NonCon=     1 RMS=1.60D-10 Max=1.45D-09 NDo=     1
 LinEq1:  Iter= 13 NonCon=     0 RMS=1.86D-11 Max=2.47D-10 NDo=     1
 Linear equations converged to 1.000D-10 1.000D-09 after    13 iterations.
 End of Minotr F.D. properties file   721 does not exist.
 End of Minotr F.D. properties file   722 does not exist.
 End of Minotr F.D. properties file   788 does not exist.
 Leave Link 1002 at Wed May 11 21:34:35 2022, MaxMem= 67108864000 cpu:              44.2 elap:               1.6
 (Enter /cm/shared/apps/gaussian/intel/EM64T/SSE4_2-enabled/binary//g16/l1102.exe)
 Use density number 2.
 Symmetrizing basis deriv contribution to polar:
 IMax=3 JMax=2 DiffMx= 0.00D+00
 Leave Link 1102 at Wed May 11 21:34:35 2022, MaxMem= 67108864000 cpu:               0.7 elap:               0.0
 (Enter /cm/shared/apps/gaussian/intel/EM64T/SSE4_2-enabled/binary//g16/l1110.exe)
 Forming Gx(P) for generalized density number  2 NAtomX=    16.
 Integral derivatives from FoFJK, PRISM(SPDF).
 Do as many integral derivatives as possible in FoFJK.
 G2DrvN: MDV=   67108862680.
 G2DrvN: will do    17 centers at a time, making    1 passes.
 Calling FoFCou, ICntrl=  3107 FMM=F I1Cent=   0 AccDes= 0.00D+00.
 FoFJK:  IHMeth= 1 ICntrl=    3107 DoSepK=F KAlg= 0 I1Cent=           0 FoldK=F
 IRaf=         0 NMat=       1 IRICut=       1 DoRegI=T DoRafI=F ISym2E= 0 IDoP0=0 IntGTp=1.
 FoFCou: FMM=F IPFlag=           0 FMFlag=      100000 FMFlg1=           0
         NFxFlg=           0 DoJE=F BraDBF=F KetDBF=F FulRan=T
         wScrn=  0.000000 ICntrl=      3107 IOpCl=  0 I1Cent=           0 NGrid=           0
         NMat0=    1 NMatS0=      1 NMatT0=    0 NMatD0=    1 NMtDS0=    0 NMtDT0=    0
 Symmetry not used in FoFCou.
 End of G2Drv F.D. properties file   721 does not exist.
 End of G2Drv F.D. properties file   722 does not exist.
 End of G2Drv F.D. properties file   788 does not exist.
 Leave Link 1110 at Wed May 11 21:34:35 2022, MaxMem= 67108864000 cpu:              11.0 elap:               0.4
 (Enter /cm/shared/apps/gaussian/intel/EM64T/SSE4_2-enabled/binary//g16/l1112.exe)
 MP22nd: MDV=   67108864000
 This link is doing NAtomX=    16 total of    51 degrees of freedom.
 Using ON3 I/O method in MakUI.
 Using Ix for Sx.
 Using OV2 memory method for fx*t*t/D, MaxI=    29 DoOO2=F NP=  28.
 R2 and R3 integrals will be kept in memory, NReq=    43794580.
 FoFCou: FMM=F IPFlag=           0 FMFlag=           0 FMFlg1=           0
         NFxFlg=           0 DoJE=F BraDBF=F KetDBF=F FulRan=T
         wScrn=  0.000000 ICntrl=       600 IOpCl=  0 I1Cent=           0 NGrid=           0
         NMat0=    1 NMatS0=      1 NMatT0=    0 NMatD0=    1 NMtDS0=    0 NMtDT0=    0
 Symmetry not used in FoFCou.
 DD1Dir will call FoFMem   1 times, MxPair=       870
 NAB=   435 NAA=     0 NBB=     0.
 Symmetry is being used.
 FoFJK:  IHMeth= 1 ICntrl=       0 DoSepK=F KAlg= 0 I1Cent=           0 FoldK=F
 IRaf=         0 NMat=      51 IRICut=     127 DoRegI=T DoRafI=T ISym2E= 2 IDoP0=0 IntGTp=1.
 Discarding MO integrals.
 Leave Link 1112 at Wed May 11 21:34:51 2022, MaxMem= 67108864000 cpu:             444.8 elap:              15.9
 (Enter /cm/shared/apps/gaussian/intel/EM64T/SSE4_2-enabled/binary//g16/l601.exe)
 Copying SCF densities to generalized density rwf, IOpCl= 0 IROHF=0.

 **********************************************************************

            Population analysis using the SCF density.

 **********************************************************************

 Orbital symmetries:
       Occupied  (A) (A) (A) (A) (A) (A) (A) (A) (A) (A) (A) (A)
                 (A) (A) (A) (A) (A) (A) (A) (A) (A) (A) (A) (A)
                 (A) (A) (A) (A) (A)
       Virtual   (A) (A) (A) (A) (A) (A) (A) (A) (A) (A) (A) (A)
                 (A) (A) (A) (A) (A) (A) (A) (A) (A) (A) (A) (A)
                 (A) (A) (A) (A) (A) (A) (A) (A) (A) (A) (A) (A)
                 (A) (A) (A) (A) (A) (A) (A) (A) (A) (A) (A) (A)
                 (A) (A) (A) (A) (A) (A) (A) (A) (A) (A) (A) (A)
                 (A) (A) (A) (A) (A) (A) (A) (A) (A) (A) (A) (A)
                 (A) (A) (A) (A) (A) (A) (A) (A) (A) (A) (A) (A)
                 (A)
 The electronic state is 1-A.
 Alpha  occ. eigenvalues --   -5.41752  -3.41574  -3.41463  -3.41444  -1.71864
 Alpha  occ. eigenvalues --   -1.70869  -1.70112  -1.69586  -1.68762  -1.07140
 Alpha  occ. eigenvalues --   -1.06190  -1.05401  -1.05095  -1.04811  -1.04191
 Alpha  occ. eigenvalues --   -1.01886  -1.00886  -0.99054  -0.98000  -0.97037
 Alpha  occ. eigenvalues --   -0.94155  -0.91780  -0.89355  -0.87848  -0.86718
 Alpha  occ. eigenvalues --   -0.85338  -0.84728  -0.83497  -0.81663
 Alpha virt. eigenvalues --   -0.27546  -0.18682  -0.17826  -0.17723  -0.17113
 Alpha virt. eigenvalues --   -0.11609  -0.10746  -0.09529  -0.09277  -0.07162
 Alpha virt. eigenvalues --   -0.05728  -0.05163  -0.04477  -0.04231  -0.03186
 Alpha virt. eigenvalues --   -0.02633  -0.01849  -0.00209   0.00284   0.00934
 Alpha virt. eigenvalues --    0.01632   0.02858   0.04391   0.04894   0.04986
 Alpha virt. eigenvalues --    0.06447   0.07404   0.08903   0.09902   0.12191
 Alpha virt. eigenvalues --    0.13085   0.13925   0.14801   0.16913   0.17088
 Alpha virt. eigenvalues --    0.18373   0.19365   0.20139   0.22325   0.35632
 Alpha virt. eigenvalues --    0.65336   0.66058   0.68606   0.71528   0.83173
 Alpha virt. eigenvalues --    1.00976   1.03103   1.04944   1.06869   1.07693
 Alpha virt. eigenvalues --    1.08566   1.09305   1.09960   1.10816   1.12052
 Alpha virt. eigenvalues --    1.12923   1.14385   1.14751   1.14927   1.15971
 Alpha virt. eigenvalues --    1.16311   1.18031   1.19112   1.21531   1.26759
 Alpha virt. eigenvalues --    1.27194   1.28796   1.30213   1.35245   1.37222
 Alpha virt. eigenvalues --    1.40576   1.42062   1.46172   1.48366   2.21967
 Alpha virt. eigenvalues --    2.28743   2.38377   2.47004   2.59119   4.26058
 Alpha virt. eigenvalues --   15.48914  41.66534  41.71449  41.72325  81.46736
          Condensed to atoms (all electrons):
               1          2          3          4          5          6
     1  Hg  18.372506  -0.003049   0.055785  -0.001620  -0.002755   0.048565
     2  H   -0.003049   0.234741   0.254421  -0.013841   0.000000   0.000038
     3  O    0.055785   0.254421   6.380613   0.252021   0.000015  -0.007434
     4  H   -0.001620  -0.013841   0.252021   0.231947  -0.000012   0.000105
     5  H   -0.002755   0.000000   0.000015  -0.000012   0.231413   0.255976
     6  O    0.048565   0.000038  -0.007434   0.000105   0.255976   6.412112
     7  H   -0.002599  -0.000000   0.000151  -0.000005  -0.013595   0.254479
     8  H   -0.002878  -0.000009   0.000888   0.000011  -0.000002   0.000140
     9  O    0.041432   0.000440  -0.008369  -0.000004   0.000167  -0.002845
    10  H   -0.002865  -0.000000   0.000229  -0.000000   0.000000   0.000037
    11  H   -0.002743  -0.000013   0.000030   0.000000  -0.000000   0.000010
    12  O    0.053078   0.000150  -0.007646   0.000036   0.000010  -0.000260
    13  H   -0.002454  -0.000004   0.000111  -0.000000   0.000000  -0.000054
    14  H   -0.003216   0.000000  -0.000021   0.000000  -0.000001   0.000199
    15  O    0.060992  -0.000021  -0.000201  -0.000029   0.000135  -0.013907
    16  H   -0.001921   0.000000  -0.000032   0.000000   0.000000   0.002409
               7          8          9         10         11         12
     1  Hg  -0.002599  -0.002878   0.041432  -0.002865  -0.002743   0.053078
     2  H   -0.000000  -0.000009   0.000440  -0.000000  -0.000013   0.000150
     3  O    0.000151   0.000888  -0.008369   0.000229   0.000030  -0.007646
     4  H   -0.000005   0.000011  -0.000004  -0.000000   0.000000   0.000036
     5  H   -0.013595  -0.000002   0.000167   0.000000  -0.000000   0.000010
     6  O    0.254479   0.000140  -0.002845   0.000037   0.000010  -0.000260
     7  H    0.236936  -0.000000   0.000082   0.000000   0.000000  -0.000037
     8  H   -0.000000   0.234599   0.255660  -0.013613   0.000000   0.000025
     9  O    0.000082   0.255660   6.412446   0.255016   0.000020  -0.002596
    10  H    0.000000  -0.013613   0.255016   0.230337  -0.000001   0.000044
    11  H    0.000000   0.000000   0.000020  -0.000001   0.231669   0.255609
    12  O   -0.000037   0.000025  -0.002596   0.000044   0.255609   6.402514
    13  H    0.000000  -0.000000  -0.000007  -0.000000  -0.013296   0.254602
    14  H   -0.000001  -0.000000   0.000304  -0.000007  -0.000001   0.002277
    15  O    0.000491   0.000182  -0.007538   0.001010   0.000127  -0.013349
    16  H   -0.000024  -0.000000   0.000137   0.000001  -0.000001   0.000126
              13         14         15         16
     1  Hg  -0.002454  -0.003216   0.060992  -0.001921
     2  H   -0.000004   0.000000  -0.000021   0.000000
     3  O    0.000111  -0.000021  -0.000201  -0.000032
     4  H   -0.000000   0.000000  -0.000029   0.000000
     5  H    0.000000  -0.000001   0.000135   0.000000
     6  O   -0.000054   0.000199  -0.013907   0.002409
     7  H    0.000000  -0.000001   0.000491  -0.000024
     8  H   -0.000000  -0.000000   0.000182  -0.000000
     9  O   -0.000007   0.000304  -0.007538   0.000137
    10  H   -0.000000  -0.000007   0.001010   0.000001
    11  H   -0.013296  -0.000001   0.000127  -0.000001
    12  O    0.254602   0.002277  -0.013349   0.000126
    13  H    0.234577  -0.000012   0.000308  -0.000001
    14  H   -0.000012   0.237796   0.251884  -0.014572
    15  O    0.000308   0.251884   6.377811   0.250644
    16  H   -0.000001  -0.014572   0.250644   0.235678
 Mulliken charges:
               1
     1  Hg   1.393743
     2  H    0.527147
     3  O   -0.920561
     4  H    0.531393
     5  H    0.528647
     6  O   -0.949570
     7  H    0.524120
     8  H    0.524997
     9  O   -0.944347
    10  H    0.529811
    11  H    0.528588
    12  O   -0.944584
    13  H    0.526231
    14  H    0.525372
    15  O   -0.908542
    16  H    0.527554
 Sum of Mulliken charges =   2.00000
 Mulliken charges with hydrogens summed into heavy atoms:
               1
     1  Hg   1.393743
     3  O    0.137979
     6  O    0.103198
     9  O    0.110461
    12  O    0.110234
    15  O    0.144384
         Mulliken charges condensed to fragments:
      1      1.393743
      2      0.606257
 APT charges:
               1
     1  Hg   1.885150
     2  H    0.368297
     3  O   -0.708484
     4  H    0.372118
     5  H    0.370649
     6  O   -0.721348
     7  H    0.367447
     8  H    0.367752
     9  O   -0.728790
    10  H    0.371721
    11  H    0.372699
    12  O   -0.722496
    13  H    0.370001
    14  H    0.367459
    15  O   -0.701517
    16  H    0.369341
 Sum of APT charges =   2.00000
 APT charges with hydrogens summed into heavy atoms:
               1
     1  Hg   1.885150
     3  O    0.031932
     6  O    0.016749
     9  O    0.010683
    12  O    0.020203
    15  O    0.035283
         APT charges condensed to fragments:
      1      1.885150
      2      0.114850
 Electronic spatial extent (au):  <R**2>=            949.0219
 Charge=              2.0000 electrons
 Dipole moment (field-independent basis, Debye):
    X=              1.6410    Y=              1.5602    Z=             -2.4548  Tot=              3.3396
 Quadrupole moment (field-independent basis, Debye-Ang):
   XX=            -19.6914   YY=            -14.8170   ZZ=            -22.5899
   XY=              0.2045   XZ=             -1.5939   YZ=              2.2316
 Traceless Quadrupole moment (field-independent basis, Debye-Ang):
   XX=             -0.6587   YY=              4.2157   ZZ=             -3.5571
   XY=              0.2045   XZ=             -1.5939   YZ=              2.2316
 Octapole moment (field-independent basis, Debye-Ang**2):
  XXX=              6.0940  YYY=             35.3316  ZZZ=             18.1894  XYY=              2.5221
  XXY=              5.5103  XXZ=            -18.6212  XZZ=             12.6840  YZZ=            -20.9369
  YYZ=            -27.4153  XYZ=             -1.6427
 Hexadecapole moment (field-independent basis, Debye-Ang**3):
 XXXX=           -169.5332 YYYY=           -121.9902 ZZZZ=            -88.1240 XXXY=             12.6548
 XXXZ=            -33.6083 YYYX=             -6.4262 YYYZ=             36.2870 ZZZX=             23.9552
 ZZZY=             -8.3764 XXYY=           -121.7241 XXZZ=           -100.0371 YYZZ=            -49.4808
 XXYZ=             -4.5204 YYXZ=             -5.1125 ZZXY=             -6.3015
 N-N= 2.936845593415D+02 E-N=-1.092428124003D+03  KE= 1.186574962781D+02
  Exact polarizability:  47.103   0.077  48.121  -0.076   0.114  43.690
 Approx polarizability:  28.035  -0.002  30.865   0.146   0.272  29.278
 No NMR shielding tensors so no spin-rotation constants.
 Leave Link  601 at Wed May 11 21:34:51 2022, MaxMem= 67108864000 cpu:               3.5 elap:               0.2
 (Enter /cm/shared/apps/gaussian/intel/EM64T/SSE4_2-enabled/binary//g16/l701.exe)
 ... and contract with generalized density number  2.
 Compute integral second derivatives.
   1 Symmetry operations used in ECPInt.
 ECPInt:  NShTT=    1770 NPrTT=    5742 LenC2=    1771 LenP2D=    4765.
 LDataN:  DoStor=T MaxTD1= 9 Len=  602
 Leave Link  701 at Wed May 11 21:34:52 2022, MaxMem= 67108864000 cpu:              36.8 elap:               1.3
 (Enter /cm/shared/apps/gaussian/intel/EM64T/SSE4_2-enabled/binary//g16/l702.exe)
 L702 exits ... SP integral derivatives will be done elsewhere.
 Leave Link  702 at Wed May 11 21:34:53 2022, MaxMem= 67108864000 cpu:               0.6 elap:               0.0
 (Enter /cm/shared/apps/gaussian/intel/EM64T/SSE4_2-enabled/binary//g16/l703.exe)
 Integral derivatives from FoFJK, PRISM(SPDF).
 Compute integral second derivatives, UseDBF=F ICtDFT=           0.
 Calling FoFJK, ICntrl=  10100127 FMM=F ISym2X=0 I1Cent= 0 IOpClX= 0 NMat=1 NMatS=1 NMatT=0.
 FoFJK:  IHMeth= 1 ICntrl=10100127 DoSepK=F KAlg= 0 I1Cent=           0 FoldK=F
 IRaf=         0 NMat=       1 IRICut=       1 DoRegI=T DoRafI=F ISym2E= 0 IDoP0=0 IntGTp=1.
 FoFCou: FMM=F IPFlag=           0 FMFlag=      100000 FMFlg1=         800
         NFxFlg=           0 DoJE=F BraDBF=F KetDBF=F FulRan=T
         wScrn=  0.000000 ICntrl=  10100127 IOpCl=  0 I1Cent=           0 NGrid=           0
         NMat0=    1 NMatS0=      1 NMatT0=    0 NMatD0=    1 NMtDS0=    0 NMtDT0=    0
 Symmetry not used in FoFCou.
 Leave Link  703 at Wed May 11 21:34:53 2022, MaxMem= 67108864000 cpu:              17.8 elap:               0.7
 (Enter /cm/shared/apps/gaussian/intel/EM64T/SSE4_2-enabled/binary//g16/l716.exe)
 Dipole        = 5.92027440D-01 5.49513324D-01-8.73786277D-01
 Polarizability= 4.71029888D+01 7.71481968D-02 4.81209973D+01
                -7.59225453D-02 1.14211528D-01 4.36903002D+01
 Full mass-weighted force constant matrix:
 Low frequencies --- -368.6541 -345.1381 -330.9432 -303.8087 -197.4745  -66.5206
 Low frequencies ---  -65.9758  -55.3591  -50.6480
 ******    8 imaginary frequencies (negative Signs) ****** 
 Diagonal vibrational polarizability:
      212.9343591     550.8551868     206.7583794
 Harmonic frequencies (cm**-1), IR intensities (KM/Mole), Raman scattering
 activities (A**4/AMU), depolarization ratios for plane and unpolarized
 incident light, reduced masses (AMU), force constants (mDyne/A),
 and normal coordinates:
                      1                      2                      3
                      A                      A                      A
 Frequencies --   -368.5065              -344.0485              -328.4487
 Red. masses --      1.0216                 1.0193                 1.0232
 Frc consts  --      0.0817                 0.0711                 0.0650
 IR Inten    --     12.5957                 9.8012                34.7158
  Atom  AN      X      Y      Z        X      Y      Z        X      Y      Z
     1  80     0.00   0.00   0.00     0.00   0.00   0.00     0.00  -0.00   0.00
     2   1     0.11   0.08   0.41     0.06   0.06   0.25    -0.03  -0.03  -0.14
     3   8     0.00  -0.02  -0.00     0.00  -0.01  -0.00    -0.01   0.01  -0.01
     4   1    -0.13   0.15  -0.40    -0.08   0.10  -0.25     0.05  -0.05   0.14
     5   1     0.18   0.04  -0.04    -0.34  -0.07   0.12    -0.50  -0.10   0.13
     6   8     0.01  -0.00   0.01     0.01   0.01  -0.01    -0.01   0.01  -0.01
     7   1    -0.20  -0.01  -0.01     0.37  -0.03   0.03     0.51  -0.00   0.03
     8   1     0.10  -0.22  -0.09     0.16  -0.36  -0.14     0.01   0.04  -0.00
     9   8    -0.01   0.00  -0.00    -0.02   0.00   0.00     0.02  -0.00   0.00
    10   1     0.02   0.23   0.08     0.02   0.40   0.12     0.02  -0.03   0.01
    11   1    -0.39  -0.01   0.14     0.28   0.02  -0.12    -0.42  -0.02   0.16
    12   8    -0.01  -0.00  -0.01    -0.01  -0.00   0.01    -0.01  -0.00  -0.01
    13   1     0.40   0.02   0.00    -0.33  -0.04  -0.02     0.45   0.04   0.02
    14   1     0.01   0.00  -0.20    -0.01  -0.01   0.12     0.02   0.01   0.02
    15   8     0.00   0.01   0.01     0.00  -0.01  -0.00    -0.00  -0.00   0.01
    16   1     0.01  -0.11   0.16     0.01   0.06  -0.10     0.01   0.05  -0.07
                      4                      5                      6
                      A                      A                      A
 Frequencies --   -302.0473              -195.4144               -57.5760
 Red. masses --      1.0321                 1.1427                 3.5317
 Frc consts  --      0.0555                 0.0257                 0.0069
 IR Inten    --     28.4846                16.4115                10.4715
  Atom  AN      X      Y      Z        X      Y      Z        X      Y      Z
     1  80     0.00  -0.00  -0.00     0.00   0.00   0.00     0.01   0.01  -0.03
     2   1    -0.14  -0.07  -0.43    -0.03  -0.02  -0.09    -0.07   0.10  -0.08
     3   8     0.00   0.02   0.00     0.00  -0.00  -0.00    -0.02   0.08  -0.09
     4   1     0.15  -0.13   0.39     0.04  -0.03   0.07     0.01   0.11  -0.11
     5   1     0.09   0.01  -0.05     0.18   0.06  -0.01     0.05  -0.06   0.44
     6   8     0.01   0.00  -0.01    -0.03   0.00   0.02     0.03  -0.15   0.21
     7   1    -0.09   0.03  -0.01    -0.26  -0.03  -0.00     0.05  -0.39   0.22
     8   1     0.16  -0.40  -0.13     0.06  -0.20  -0.04    -0.25  -0.13   0.14
     9   8    -0.02  -0.01   0.00    -0.02   0.01   0.00    -0.16  -0.08  -0.02
    10   1     0.00   0.47   0.12    -0.01   0.18   0.04    -0.28  -0.09  -0.16
    11   1    -0.02  -0.03   0.04    -0.14   0.02   0.04     0.02  -0.08   0.29
    12   8    -0.01  -0.00   0.01     0.02   0.01  -0.01     0.00   0.03   0.19
    13   1     0.02   0.03   0.03     0.21   0.00  -0.02     0.00   0.17   0.26
    14   1     0.01   0.00  -0.24    -0.08  -0.10   0.60     0.04   0.05   0.01
    15   8     0.00   0.01   0.01     0.00  -0.08  -0.02     0.01   0.03   0.01
    16   1     0.01  -0.15   0.21     0.07   0.27  -0.52    -0.02   0.04   0.02
                      7                      8                      9
                      A                      A                      A
 Frequencies --    -49.3494               -37.9555                22.6386
 Red. masses --      3.6344                 3.1819                 4.7064
 Frc consts  --      0.0052                 0.0027                 0.0014
 IR Inten    --      9.6669                17.4897                 3.3331
  Atom  AN      X      Y      Z        X      Y      Z        X      Y      Z
     1  80    -0.03   0.02  -0.01    -0.01  -0.04  -0.01     0.01  -0.04  -0.01
     2   1     0.08  -0.16   0.03    -0.18   0.29   0.14    -0.03   0.00  -0.08
     3   8     0.01  -0.12   0.07    -0.01   0.21   0.11    -0.02  -0.01  -0.11
     4   1    -0.05  -0.17   0.09     0.14   0.33   0.10    -0.03   0.01  -0.16
     5   1     0.09  -0.03   0.20     0.07   0.02   0.02    -0.01  -0.01  -0.26
     6   8     0.05  -0.08   0.09     0.02  -0.00   0.01    -0.00   0.04  -0.12
     7   1     0.05  -0.19   0.09    -0.06  -0.02   0.01    -0.03   0.18  -0.12
     8   1     0.37   0.12  -0.28     0.17  -0.00  -0.13    -0.10   0.37   0.20
     9   8     0.24   0.04  -0.04     0.10   0.01  -0.01    -0.07   0.34   0.17
    10   1     0.43   0.02   0.17     0.18   0.05   0.09    -0.10   0.38   0.14
    11   1     0.14  -0.06   0.20     0.01   0.01   0.01     0.04  -0.12   0.34
    12   8     0.08   0.03   0.14     0.04   0.02  -0.00     0.01   0.01   0.22
    13   1     0.05   0.13   0.19     0.10   0.02   0.00     0.00   0.17   0.31
    14   1    -0.10  -0.08  -0.23     0.16   0.36   0.26     0.03   0.02  -0.01
    15   8    -0.03  -0.03  -0.18    -0.02   0.22   0.00     0.00  -0.00  -0.05
    16   1     0.05  -0.10  -0.17    -0.23   0.46  -0.13    -0.02   0.04  -0.09
                     10                     11                     12
                      A                      A                      A
 Frequencies --     58.3190                69.5565                84.1536
 Red. masses --      3.8253                 4.6756                 5.6739
 Frc consts  --      0.0077                 0.0133                 0.0237
 IR Inten    --      3.0580                 2.8954                 0.1970
  Atom  AN      X      Y      Z        X      Y      Z        X      Y      Z
     1  80     0.01  -0.01   0.03    -0.00   0.00  -0.05    -0.05  -0.00   0.00
     2   1    -0.21   0.29  -0.06     0.04   0.11   0.39    -0.07   0.04  -0.13
     3   8    -0.05   0.20  -0.11     0.05   0.06   0.28    -0.03   0.03  -0.12
     4   1     0.05   0.32  -0.18     0.15   0.13   0.28    -0.04   0.05  -0.15
     5   1    -0.22  -0.04  -0.03    -0.23  -0.01   0.06     0.33   0.04  -0.04
     6   8    -0.19  -0.02   0.00    -0.17   0.00   0.02     0.32   0.03  -0.04
     7   1    -0.11   0.03   0.01    -0.07  -0.01   0.03     0.38   0.06  -0.04
     8   1    -0.01   0.01   0.02    -0.04   0.15   0.01    -0.05   0.01   0.01
     9   8     0.01  -0.03   0.01    -0.01   0.08   0.00    -0.04  -0.00  -0.00
    10   1     0.00  -0.07   0.00    -0.02   0.07  -0.01    -0.05  -0.02  -0.01
    11   1     0.20   0.05  -0.09     0.14  -0.07   0.10     0.36   0.00  -0.03
    12   8     0.18   0.03  -0.05     0.13  -0.01   0.04     0.35   0.03  -0.05
    13   1     0.09   0.00  -0.06     0.08   0.08   0.09     0.40   0.03  -0.05
    14   1    -0.14  -0.21  -0.46    -0.11  -0.27   0.05    -0.09  -0.10   0.16
    15   8     0.00  -0.10  -0.19     0.02  -0.17   0.21    -0.05  -0.07   0.16
    16   1     0.21  -0.31  -0.09     0.12  -0.35   0.36    -0.07  -0.11   0.23
                     13                     14                     15
                      A                      A                      A
 Frequencies --    202.8000               266.9646               283.2312
 Red. masses --      6.0065                 6.6982                 6.7414
 Frc consts  --      0.1455                 0.2813                 0.3186
 IR Inten    --      0.7570                 6.7938                17.4245
  Atom  AN      X      Y      Z        X      Y      Z        X      Y      Z
     1  80    -0.00   0.00  -0.00    -0.00  -0.03  -0.04     0.00  -0.05   0.02
     2   1    -0.22  -0.04   0.09    -0.07  -0.03   0.03     0.07  -0.02  -0.08
     3   8    -0.24  -0.04   0.07    -0.10  -0.04  -0.02     0.12  -0.02  -0.01
     4   1    -0.24  -0.05   0.09    -0.07  -0.03   0.02     0.11  -0.02  -0.01
     5   1     0.03  -0.23  -0.17    -0.02   0.36   0.25    -0.03   0.08   0.07
     6   8     0.01  -0.23  -0.16     0.03   0.37   0.24     0.01   0.10   0.10
     7   1     0.03  -0.22  -0.16    -0.03   0.35   0.24     0.03   0.14   0.10
     8   1     0.03  -0.08   0.12     0.04  -0.04   0.29    -0.06   0.13  -0.32
     9   8     0.03  -0.06   0.13     0.06  -0.15   0.29    -0.07   0.14  -0.32
    10   1     0.03  -0.04   0.14     0.06  -0.07   0.31    -0.06   0.08  -0.33
    11   1    -0.01   0.32  -0.04     0.00   0.12  -0.03     0.01   0.39  -0.05
    12   8    -0.02   0.31  -0.04    -0.03   0.14  -0.03    -0.08   0.41  -0.04
    13   1    -0.00   0.31  -0.04    -0.04   0.15  -0.02    -0.02   0.40  -0.04
    14   1     0.25  -0.00   0.09    -0.02  -0.08  -0.09    -0.06  -0.07  -0.11
    15   8     0.26   0.00   0.04     0.03  -0.04  -0.04    -0.05  -0.06   0.01
    16   1     0.26  -0.00   0.04     0.07  -0.11   0.02    -0.00  -0.11   0.04
                     16                     17                     18
                      A                      A                      A
 Frequencies --    327.8156               339.6658               453.8761
 Red. masses --      6.9062                 7.0348                 1.1426
 Frc consts  --      0.4373                 0.4782                 0.1387
 IR Inten    --      2.5708                 7.6708                 4.2255
  Atom  AN      X      Y      Z        X      Y      Z        X      Y      Z
     1  80    -0.04   0.00  -0.01    -0.05  -0.01   0.01    -0.00   0.00  -0.00
     2   1     0.45   0.06  -0.14     0.07   0.01  -0.05     0.11  -0.02   0.05
     3   8     0.50   0.06  -0.07     0.10   0.01  -0.01    -0.00   0.01   0.00
     4   1     0.43   0.07  -0.16     0.08   0.02  -0.04    -0.05  -0.03   0.01
     5   1     0.05  -0.08  -0.06     0.03   0.13   0.09    -0.10  -0.30  -0.53
     6   8    -0.03  -0.11  -0.08     0.00   0.12   0.09     0.01  -0.05   0.07
     7   1     0.06  -0.10  -0.08     0.07   0.13   0.09     0.02   0.61   0.07
     8   1     0.00  -0.04   0.24    -0.06   0.06  -0.13    -0.01  -0.14   0.08
     9   8     0.02  -0.12   0.23    -0.06   0.07  -0.13     0.01  -0.00  -0.01
    10   1     0.01  -0.09   0.23    -0.04  -0.01  -0.13    -0.05  -0.04  -0.08
    11   1     0.05   0.10  -0.02     0.05  -0.15   0.00     0.09  -0.24   0.15
    12   8    -0.05   0.14  -0.01     0.01  -0.15   0.02    -0.01  -0.00  -0.03
    13   1     0.05   0.13  -0.02     0.08  -0.17   0.01    -0.01   0.26   0.11
    14   1     0.00  -0.01   0.04     0.48   0.02   0.03    -0.05  -0.02   0.06
    15   8     0.02   0.00   0.00     0.53   0.05  -0.07    -0.00   0.01  -0.01
    16   1     0.01  -0.01   0.01     0.48   0.01   0.03     0.02   0.01  -0.03
                     19                     20                     21
                      A                      A                      A
 Frequencies --    473.6714               483.0478               501.4425
 Red. masses --      1.1650                 1.1803                 1.1618
 Frc consts  --      0.1540                 0.1623                 0.1721
 IR Inten    --     38.6075                16.0756                32.6782
  Atom  AN      X      Y      Z        X      Y      Z        X      Y      Z
     1  80     0.00  -0.00   0.01    -0.01  -0.00   0.00    -0.00   0.00  -0.00
     2   1    -0.11   0.02  -0.07     0.24  -0.07   0.03    -0.41   0.16   0.13
     3   8     0.01  -0.01   0.01    -0.01   0.02   0.01     0.00  -0.07  -0.01
     4   1    -0.04   0.04  -0.10    -0.15  -0.11   0.05     0.45   0.24   0.01
     5   1     0.04   0.13   0.22     0.01   0.07   0.13     0.23   0.07   0.00
     6   8    -0.00   0.02  -0.03    -0.01   0.01  -0.02    -0.02  -0.01  -0.00
     7   1    -0.02  -0.25  -0.04    -0.02  -0.15  -0.02     0.25   0.08   0.02
     8   1     0.03  -0.00  -0.06    -0.16  -0.27   0.51    -0.07  -0.13   0.24
     9   8    -0.01   0.00   0.00     0.09   0.02  -0.01     0.04   0.01  -0.00
    10   1     0.05  -0.07   0.05    -0.35   0.21  -0.46    -0.15   0.06  -0.22
    11   1     0.13  -0.51   0.33     0.17  -0.06  -0.01    -0.20   0.06   0.02
    12   8    -0.01  -0.01  -0.09    -0.01   0.00  -0.00     0.01  -0.00   0.00
    13   1    -0.11   0.59   0.24     0.16   0.00  -0.01    -0.19   0.02   0.01
    14   1     0.01   0.01  -0.05     0.17   0.09  -0.09    -0.25  -0.12  -0.01
    15   8    -0.00   0.00   0.02    -0.00  -0.02  -0.01    -0.00   0.05   0.01
    16   1     0.08   0.03  -0.09    -0.10   0.06  -0.03     0.27  -0.06  -0.08
                     22                     23                     24
                      A                      A                      A
 Frequencies --    545.9187               595.3373               611.7821
 Red. masses --      1.1954                 1.1671                 1.1553
 Frc consts  --      0.2099                 0.2437                 0.2548
 IR Inten    --     42.0901              1104.2705               579.8311
  Atom  AN      X      Y      Z        X      Y      Z        X      Y      Z
     1  80     0.00  -0.01  -0.00     0.00   0.00   0.00    -0.00   0.00   0.00
     2   1     0.33  -0.11  -0.03     0.27  -0.00   0.33     0.01   0.00   0.03
     3   8    -0.01   0.05   0.00    -0.04   0.00  -0.06    -0.00  -0.01  -0.00
     4   1    -0.28  -0.17   0.03     0.26  -0.02   0.32     0.00   0.01  -0.02
     5   1     0.01   0.02   0.04     0.40   0.15   0.04     0.11   0.01  -0.05
     6   8     0.01   0.00  -0.01    -0.05  -0.01  -0.00    -0.02  -0.01   0.00
     7   1     0.00  -0.05  -0.01     0.35   0.10   0.03     0.10   0.10   0.01
     8   1    -0.05   0.19  -0.01     0.05   0.05  -0.13    -0.14   0.62  -0.03
     9   8     0.00  -0.02  -0.01    -0.02  -0.00   0.00     0.01  -0.09  -0.02
    10   1    -0.03   0.18  -0.01     0.09  -0.03   0.12    -0.11   0.63  -0.01
    11   1     0.02   0.00  -0.01     0.36  -0.12  -0.03    -0.16  -0.01   0.06
    12   8    -0.01  -0.00   0.01    -0.05   0.00   0.00     0.03  -0.00  -0.01
    13   1     0.03  -0.03  -0.00     0.30  -0.03  -0.02    -0.17   0.10   0.05
    14   1    -0.52  -0.26   0.01     0.10   0.06  -0.11     0.16   0.09   0.03
    15   8    -0.00   0.09   0.03    -0.01  -0.01   0.02     0.00  -0.02  -0.01
    16   1     0.55  -0.14  -0.15     0.04   0.06  -0.11    -0.17   0.07   0.01
                     25                     26                     27
                      A                      A                      A
 Frequencies --    623.7453               646.7076               653.7292
 Red. masses --      1.1438                 1.1429                 1.1497
 Frc consts  --      0.2622                 0.2816                 0.2895
 IR Inten    --     47.2617               340.0811               287.5339
  Atom  AN      X      Y      Z        X      Y      Z        X      Y      Z
     1  80     0.00   0.00   0.00    -0.00  -0.00   0.00     0.00  -0.00   0.00
     2   1    -0.34   0.11  -0.01     0.30   0.02   0.42    -0.02  -0.00  -0.02
     3   8     0.00  -0.03   0.01    -0.02   0.00  -0.07    -0.01  -0.00   0.00
     4   1     0.21   0.17  -0.09     0.39  -0.01   0.41    -0.02   0.00  -0.02
     5   1    -0.32  -0.13  -0.06    -0.34  -0.10   0.03     0.11   0.07   0.07
     6   8     0.05   0.01   0.00     0.05   0.01  -0.01    -0.02  -0.00  -0.01
     7   1    -0.30  -0.06  -0.02    -0.36  -0.18  -0.04     0.17  -0.02   0.00
     8   1    -0.05   0.22   0.00    -0.01   0.01   0.00    -0.02   0.00   0.03
     9   8     0.01  -0.03  -0.00     0.00   0.00  -0.00     0.00   0.00  -0.00
    10   1    -0.04   0.19  -0.01    -0.00   0.01  -0.01    -0.02   0.02  -0.03
    11   1     0.47  -0.12  -0.07    -0.16  -0.01   0.06     0.13  -0.09   0.03
    12   8    -0.07   0.00   0.01     0.02  -0.00  -0.01    -0.02   0.00  -0.01
    13   1     0.46  -0.10  -0.05    -0.19   0.11   0.05     0.17   0.04   0.01
    14   1    -0.06  -0.03  -0.03    -0.07  -0.05   0.11    -0.31  -0.17   0.55
    15   8    -0.00   0.00   0.01     0.01   0.01  -0.02     0.02   0.03  -0.08
    16   1     0.10  -0.01  -0.06    -0.05  -0.05   0.11    -0.33  -0.21   0.54
                     28                     29                     30
                      A                      A                      A
 Frequencies --   1717.8074              1724.6031              1728.3990
 Red. masses --      1.0893                 1.0896                 1.0879
 Frc consts  --      1.8939                 1.9095                 1.9149
 IR Inten    --    149.0827               221.6908               126.0477
  Atom  AN      X      Y      Z        X      Y      Z        X      Y      Z
     1  80    -0.00   0.00  -0.00     0.00  -0.00   0.00     0.00   0.00   0.00
     2   1    -0.00   0.00   0.00    -0.16   0.10   0.13     0.16  -0.10  -0.13
     3   8     0.00   0.00  -0.00     0.02   0.00  -0.01    -0.02  -0.00   0.01
     4   1    -0.00  -0.00   0.00    -0.14  -0.15   0.09     0.14   0.15  -0.10
     5   1     0.01  -0.03  -0.07    -0.04   0.09   0.26    -0.09   0.18   0.53
     6   8    -0.00   0.01   0.00     0.01  -0.02  -0.02     0.02  -0.05  -0.03
     7   1     0.03  -0.08  -0.00    -0.09   0.26   0.00    -0.18   0.54   0.00
     8   1    -0.06  -0.01   0.11    -0.29  -0.06   0.52     0.09   0.02  -0.16
     9   8    -0.00   0.00  -0.01    -0.01   0.00  -0.06     0.00   0.00   0.02
    10   1     0.08   0.02   0.10     0.38   0.08   0.46    -0.12  -0.03  -0.14
    11   1    -0.00   0.05  -0.04     0.01   0.03  -0.03     0.01   0.21  -0.19
    12   8    -0.00  -0.01   0.00    -0.00  -0.00   0.00    -0.00  -0.03   0.00
    13   1     0.02   0.06   0.03     0.01   0.04   0.02     0.07   0.25   0.12
    14   1     0.48   0.32   0.37    -0.06  -0.04  -0.05     0.05   0.03   0.04
    15   8    -0.06   0.01  -0.03     0.01  -0.00   0.00    -0.01   0.00  -0.00
    16   1     0.52  -0.42   0.13    -0.07   0.06  -0.02     0.06  -0.05   0.02
                     31                     32                     33
                      A                      A                      A
 Frequencies --   1731.0445              1731.9651              3666.7660
 Red. masses --      1.0878                 1.0866                 1.0399
 Frc consts  --      1.9205                 1.9205                 8.2377
 IR Inten    --     55.6710                67.0165               108.8053
  Atom  AN      X      Y      Z        X      Y      Z        X      Y      Z
     1  80    -0.00   0.00  -0.00     0.00  -0.00   0.00     0.00  -0.00   0.00
     2   1    -0.06   0.04   0.04     0.44  -0.28  -0.34    -0.03  -0.10   0.03
     3   8     0.01   0.00  -0.00    -0.05  -0.01   0.04     0.01   0.00  -0.00
     4   1    -0.05  -0.05   0.03     0.37   0.42  -0.27    -0.05   0.08   0.05
     5   1     0.04  -0.08  -0.25     0.02  -0.05  -0.14    -0.00  -0.00   0.00
     6   8    -0.01   0.02   0.02    -0.00   0.01   0.01     0.00   0.00   0.00
     7   1     0.08  -0.25  -0.00     0.04  -0.14  -0.00    -0.00   0.00  -0.00
     8   1    -0.01  -0.01   0.02    -0.14  -0.03   0.26    -0.01  -0.00  -0.00
     9   8    -0.00   0.00  -0.00    -0.00  -0.00  -0.03    -0.00   0.00   0.00
    10   1     0.02   0.00   0.02     0.18   0.04   0.22     0.01   0.00  -0.01
    11   1     0.04   0.47  -0.43    -0.01  -0.00   0.00    -0.00  -0.00  -0.00
    12   8    -0.01  -0.06   0.01     0.00   0.00  -0.00     0.00   0.00  -0.00
    13   1     0.15   0.55   0.28    -0.01  -0.01  -0.00    -0.00  -0.00   0.00
    14   1    -0.07  -0.05  -0.05    -0.05  -0.03  -0.03    -0.35   0.60   0.01
    15   8     0.01  -0.00   0.00     0.01  -0.00   0.00     0.04  -0.00   0.02
    16   1    -0.08   0.06  -0.02    -0.05   0.04  -0.01    -0.28  -0.53  -0.36
                     34                     35                     36
                      A                      A                      A
 Frequencies --   3670.7585              3683.8308              3687.2484
 Red. masses --      1.0401                 1.0402                 1.0402
 Frc consts  --      8.2572                 8.3167                 8.3324
 IR Inten    --     68.7006               115.6880                69.4061
  Atom  AN      X      Y      Z        X      Y      Z        X      Y      Z
     1  80    -0.00  -0.00   0.00     0.00   0.00  -0.00     0.00  -0.00  -0.00
     2   1     0.22   0.63  -0.17    -0.01  -0.04   0.01    -0.02  -0.04   0.01
     3   8    -0.03  -0.01   0.03     0.00   0.00  -0.00     0.00   0.00  -0.00
     4   1     0.33  -0.54  -0.30    -0.02   0.03   0.02    -0.03   0.04   0.02
     5   1    -0.01   0.04  -0.02     0.04  -0.12   0.06    -0.19   0.61  -0.28
     6   8     0.00  -0.00  -0.00    -0.00   0.01   0.01     0.01  -0.03  -0.03
     7   1    -0.00  -0.00   0.04     0.01   0.01  -0.14    -0.04  -0.05   0.68
     8   1    -0.01  -0.00  -0.01     0.05   0.01   0.03     0.07   0.02   0.04
     9   8     0.00   0.00   0.00    -0.00  -0.00  -0.00    -0.00  -0.00  -0.01
    10   1     0.01   0.00  -0.01    -0.04  -0.01   0.03    -0.06  -0.01   0.05
    11   1    -0.01  -0.03  -0.04    -0.18  -0.43  -0.53    -0.03  -0.08  -0.10
    12   8     0.00   0.00  -0.00     0.01   0.04  -0.01     0.00   0.01  -0.00
    13   1     0.00  -0.02   0.05     0.01  -0.27   0.62     0.00  -0.05   0.12
    14   1    -0.05   0.09   0.00     0.01  -0.01  -0.00     0.00  -0.00  -0.00
    15   8     0.01  -0.00   0.00    -0.00   0.00  -0.00    -0.00  -0.00  -0.00
    16   1    -0.04  -0.08  -0.06     0.00   0.00   0.00     0.00   0.00   0.00
                     37                     38                     39
                      A                      A                      A
 Frequencies --   3692.1997              3777.4357              3778.2685
 Red. masses --      1.0403                 1.0845                 1.0845
 Frc consts  --      8.3554                 9.1178                 9.1216
 IR Inten    --     70.1082                94.6742               254.2565
  Atom  AN      X      Y      Z        X      Y      Z        X      Y      Z
     1  80    -0.00  -0.00  -0.00     0.00   0.00   0.00    -0.00   0.00   0.00
     2   1     0.01   0.02  -0.00     0.26   0.61  -0.21     0.07   0.15  -0.05
     3   8    -0.00  -0.00   0.00     0.01  -0.07  -0.01     0.00  -0.02  -0.00
     4   1     0.01  -0.01  -0.01    -0.35   0.48   0.32    -0.09   0.12   0.08
     5   1     0.02  -0.06   0.03     0.00  -0.01   0.00     0.00  -0.01   0.00
     6   8    -0.00   0.00   0.00     0.00   0.00  -0.00    -0.00   0.00  -0.00
     7   1     0.00   0.01  -0.06    -0.00  -0.00   0.01     0.00   0.00  -0.00
     8   1     0.62   0.14   0.32     0.00   0.00   0.00    -0.00   0.00  -0.00
     9   8    -0.00  -0.00  -0.05    -0.00   0.00   0.00     0.00   0.00   0.00
    10   1    -0.54  -0.10   0.41     0.00   0.00  -0.00     0.00   0.00   0.00
    11   1     0.02   0.04   0.05     0.00   0.00   0.00    -0.00  -0.00  -0.00
    12   8    -0.00  -0.00   0.00    -0.00  -0.00  -0.00     0.00   0.00   0.00
    13   1    -0.00   0.03  -0.06     0.00  -0.00   0.00    -0.00   0.00  -0.00
    14   1    -0.01   0.01   0.00     0.10  -0.15   0.01    -0.38   0.57  -0.03
    15   8     0.00  -0.00   0.00    -0.00   0.02   0.01     0.00  -0.07  -0.02
    16   1    -0.01  -0.01  -0.01    -0.08  -0.12  -0.09     0.31   0.48   0.37
                     40                     41                     42
                      A                      A                      A
 Frequencies --   3791.0361              3794.1951              3799.9300
 Red. masses --      1.0847                 1.0845                 1.0846
 Frc consts  --      9.1846                 9.1989                 9.2271
 IR Inten    --    162.0441               197.2169               174.3205
  Atom  AN      X      Y      Z        X      Y      Z        X      Y      Z
     1  80     0.00  -0.00   0.00     0.00   0.00   0.00     0.00   0.00   0.00
     2   1    -0.00  -0.00   0.00    -0.00  -0.01   0.00     0.00  -0.00   0.00
     3   8    -0.00   0.00  -0.00    -0.00   0.00   0.00    -0.00   0.00   0.00
     4   1     0.00  -0.00  -0.00     0.00  -0.01  -0.00     0.00  -0.00   0.00
     5   1    -0.02   0.05  -0.02     0.21  -0.63   0.22    -0.00   0.00  -0.00
     6   8     0.00  -0.00   0.00    -0.01   0.04  -0.06     0.00  -0.00   0.00
     7   1     0.00  -0.00  -0.05    -0.06  -0.00   0.71     0.00   0.00  -0.00
     8   1    -0.01  -0.00  -0.00     0.00   0.00   0.00     0.58   0.14   0.36
     9   8     0.00   0.00  -0.00    -0.00  -0.00   0.00    -0.07  -0.01   0.01
    10   1    -0.01  -0.00   0.01     0.00   0.00  -0.00     0.53   0.09  -0.48
    11   1     0.18   0.46   0.48     0.01   0.03   0.03     0.00   0.00   0.01
    12   8    -0.01  -0.01  -0.07    -0.00  -0.00  -0.01    -0.00  -0.00  -0.00
    13   1    -0.01  -0.34   0.63    -0.00  -0.02   0.05     0.00  -0.00   0.01
    14   1    -0.00   0.00   0.00    -0.00  -0.00   0.00    -0.00   0.00  -0.00
    15   8     0.00  -0.00  -0.00     0.00   0.00   0.00    -0.00  -0.00  -0.00
    16   1     0.00   0.00   0.00    -0.00  -0.00  -0.00     0.00   0.00   0.00

 -------------------
 - Thermochemistry -
 -------------------
 Temperature   298.150 Kelvin.  Pressure   1.00000 Atm.
 Atom     1 has atomic number 80 and mass 201.97060
 Atom     2 has atomic number  1 and mass   1.00783
 Atom     3 has atomic number  8 and mass  15.99491
 Atom     4 has atomic number  1 and mass   1.00783
 Atom     5 has atomic number  1 and mass   1.00783
 Atom     6 has atomic number  8 and mass  15.99491
 Atom     7 has atomic number  1 and mass   1.00783
 Atom     8 has atomic number  1 and mass   1.00783
 Atom     9 has atomic number  8 and mass  15.99491
 Atom    10 has atomic number  1 and mass   1.00783
 Atom    11 has atomic number  1 and mass   1.00783
 Atom    12 has atomic number  8 and mass  15.99491
 Atom    13 has atomic number  1 and mass   1.00783
 Atom    14 has atomic number  1 and mass   1.00783
 Atom    15 has atomic number  8 and mass  15.99491
 Atom    16 has atomic number  1 and mass   1.00783
 Molecular mass:   292.02342 amu.
 Principal axes and moments of inertia in atomic units:
                           1         2         3
     Eigenvalues --  1157.576841187.079361449.44119
           X            0.99998  -0.00273  -0.00514
           Y            0.00278   0.99994   0.01092
           Z            0.00511  -0.01093   0.99993
 This molecule is an asymmetric top.
 Rotational symmetry number  1.
 Warning -- assumption of classical behavior for rotation
           may cause significant error
 Rotational temperatures (Kelvin)      0.07482     0.07296     0.05976
 Rotational constants (GHZ):           1.55907     1.52032     1.24513
    8 imaginary frequencies ignored.
 Zero-point vibrational energy     318325.6 (Joules/Mol)
                                   76.08165 (Kcal/Mol)
 Warning -- explicit consideration of  16 degrees of freedom as
           vibrations may cause significant error
 Vibrational temperatures:     32.57    83.91   100.08   121.08   291.78
          (Kelvin)            384.10   407.51   471.65   488.70   653.03
                              681.51   695.00   721.46   785.46   856.56
                              880.22   897.43   930.47   940.57  2471.54
[...]

 ----------------------------------------------------------------------

 Dipole orientation:
    80         -0.16394042         -0.11264028          0.17841488
     1         -1.04821550         -3.53883070          4.42765123
     8          0.01310326         -3.51307292          2.91898184
     1          1.65876094         -4.16766297          3.43659920
     1          5.44943014         -0.16401204         -0.84533383
     8          4.25761413          0.91092727          0.06048813
     1          5.18754787          1.61371493          1.48752359
     1         -1.04389796         -4.71061811         -2.96724072
     8         -0.35219221         -3.01828834         -3.19395053
     1         -0.87548874         -2.46661335         -4.87154012
     1         -5.50517732          1.00435720          1.87198111
     8         -3.84175997          1.79017474          1.98987729
     1         -3.81257462          2.68645871          3.59974849
     1         -1.78197833          4.42825449         -2.36116384
     8         -0.43331089          3.19941528         -2.63617586
     1          1.11617373          4.16522635         -2.90415461

 Electric dipole moment (dipole orientation):
 (Debye = 10**-18 statcoulomb cm , SI units = C m)
                  (au)            (Debye)         (10**-30 SI)
   Tot        0.118994D+01      0.302453D+01      0.100888D+02
   x          0.000000D+00      0.000000D+00      0.000000D+00
   y          0.000000D+00      0.000000D+00      0.000000D+00
   z          0.118994D+01      0.302453D+01      0.100888D+02

 Dipole polarizability, Alpha (dipole orientation).
 (esu units = cm**3 , SI units = C**2 m**2 J**-1)
 Alpha(0;0):
               (au)            (10**-24 esu)      (10**-40 SI)
   iso        0.463048D+02      0.686166D+01      0.763462D+01
   aniso      0.402880D+01      0.597006D+00      0.664259D+00
   xx         0.471278D+02      0.698361D+01      0.777032D+01
   yx        -0.888541D+00     -0.131668D+00     -0.146501D+00
   yy         0.462931D+02      0.685993D+01      0.763270D+01
   zx        -0.160607D+01     -0.237996D+00     -0.264806D+00
   zy        -0.117198D+01     -0.173669D+00     -0.193233D+00
   zz         0.454934D+02      0.674143D+01      0.750085D+01

 ----------------------------------------------------------------------
 1\1\GINC-CTCP002\Freq\RMP2-Full\SDDAll\H10Hg1O5(2+)\FLOREZ\11-May-2022
 \0\\#p MP2(full) SDDAll freq\\file 'w5s8.log' Now we use Def2-QZVPPD, 
 but it was opt at: ---' #p ZORA-SR+SO PBE QZ4P'---\\2,1\Hg,-0.098072,0
 .10092,-0.013784\H,-0.838646,2.909125,-0.371404\O,-0.14419,2.410653,0.
 100013\H,0.684558,2.910703,-0.028491\H,2.916055,-0.031255,-0.138175\O,
 2.171323,-0.183796,-0.749079\H,2.491843,0.070585,-1.634114\H,-0.085799
 ,0.789594,2.89027\O,0.233161,0.065879,2.320295\H,0.101888,-0.757666,2.
 82481\H,-3.073971,0.055292,-0.546118\O,-2.250386,-0.15374,-1.025339\H,
 -2.422074,0.055015,-1.962293\H,-0.860984,-2.642632,-0.465624\O,-0.0895
 72,-2.20307,-0.059313\H,0.705218,-2.622312,-0.441653\\Version=ES64L-G1
 6RevA.03\State=1-A\HF=-236.5227502\MP2=-237.2967892\RMSD=6.076e-09\RMS
 F=7.255e-03\ZeroPoint=0.1212438\Thermal=0.1314667\Dipole=-0.2152247,0.
 7855879,-0.867464\DipoleDeriv=1.9135148,-0.00718,0.0955082,-0.0119088,
 2.0431873,0.0442686,0.0928941,0.0441104,1.6987473,0.3890447,-0.071441,
 -0.035128,0.0023871,0.3391596,0.0591029,-0.0321545,0.0404892,0.3766872
 ,-0.6024507,0.0209495,0.0060486,0.02683,-0.8819315,-0.1128945,0.011571
 1,-0.118018,-0.6410694,0.365439,0.051848,0.026584,-0.0269344,0.3414411
 ,0.0515323,0.0193663,0.0660388,0.4094749,0.3241995,-0.0540682,-0.00237
 75,-0.0495626,0.4297256,-0.009182,0.0538643,-0.0159672,0.3580229,-0.81
 44052,0.1032434,0.0946198,0.1106049,-0.7632284,-0.0518875,0.072502,-0.
 0491751,-0.5864103,0.300266,-0.0380293,0.0295311,-0.0330838,0.4265619,
 0.0435632,-0.0234591,0.0531182,0.3755142,0.4066404,0.0357684,0.0458561
 ,0.0370743,0.3787003,0.0506854,0.0479566,-0.0178077,0.3179144,-0.69926
 25,-0.0141123,-0.1500214,-0.0111687,-0.6090467,-0.0054116,-0.1249724,-
 0.0053908,-0.8780598,0.4230593,-0.0241523,0.0540055,-0.0282044,0.37094
 39,-0.0367905,0.0425992,0.0334401,0.3211608,0.3409031,0.060913,-0.0079
 635,0.0517115,0.4294602,-0.0064295,-0.0674393,-0.010431,0.3477326,-0.8
 008953,-0.097901,-0.1172974,-0.1020785,-0.763272,-0.0535328,-0.1090438
 ,-0.0521069,-0.6033218,0.3029561,0.0291326,-0.0362027,0.0285776,0.4318
 535,0.0457633,0.0187066,0.0537316,0.3751932,0.3746242,0.0607775,-0.025
 8883,-0.0153271,0.3680681,-0.066814,-0.0337841,-0.0623744,0.3596854,-0
 .6019011,0.0019472,-0.0052083,0.0001511,-0.9106547,0.1086687,-0.002922
 2,0.0994346,-0.5919951,0.3782678,-0.0576953,0.0279336,0.0209317,0.3690
 317,-0.0606419,0.0343152,-0.0590919,0.3607234\Polar=47.731436,-0.31702
 94,47.0512464,1.2080352,0.439227,44.1316039\PG=C01 [X(H10Hg1O5)]\NImag
 =8\\0.07939747,-0.00214901,0.13617521,0.01034094,0.00725401,0.07100224
 ,0.00366998,0.00212133,-0.00035082,0.30060965,0.00586337,-0.00436494,0
 .00409405,-0.15306651,0.14968209,0.00088472,-0.00189649,0.00216878,0.1
 6318849,-0.11696892,0.11189882,-0.01222852,-0.00091023,-0.00129592,-0.
 27156741,0.17356600,-0.17356699,0.64740210,0.00162650,-0.04940869,-0.0
 0735931,0.12504706,-0.15809932,0.11445733,0.03574881,0.36929038,-0.001
 40899,0.00486743,-0.00780695,-0.13581192,0.12094639,-0.11878947,0.1178
 6324,-0.16016286,0.15167489,0.00377738,-0.00104422,0.00098255,-0.03165
 607,-0.02586909,0.00948022,-0.36211892,-0.16240929,0.01986897,0.391092
 88,-0.00683776,-0.00477803,0.00120251,0.02685249,0.01222301,0.00403288
 ,-0.20920905,-0.15852368,0.03479325,0.18873955,0.15025745,-0.00017625,
 -0.00244722,0.00279814,-0.02727694,-0.00784899,0.00550479,0.05781525,0
 .04978650,-0.02679465,-0.03018448,-0.03994680,0.01998539,-0.00453983,-
 0.00109461,-0.00348137,-0.00012543,0.00004407,-0.00001485,0.00052458,0
 .00002692,0.00017469,-0.00034225,0.00068908,0.00000492,0.29502915,0.00
 210466,0.00306142,0.00028991,0.00016582,-0.00005021,0.00006751,-0.0007
 9002,-0.00053320,-0.00027958,0.00100212,-0.00078276,0.00009578,0.05700
 383,0.01709755,0.00079057,-0.00020894,0.00547190,-0.00012486,0.0000247
 3,0.00005994,0.00029248,-0.00095862,-0.00083211,0.00010458,0.00014508,
 0.00057540,0.21991395,0.03461956,0.25220139,-0.02984115,0.00576700,0.0
 0344969,0.00072570,0.00032720,0.00052695,-0.00181663,0.00581057,0.0009
 9298,-0.00121760,-0.00028754,-0.00038662,-0.30001375,-0.06537351,-0.17
 838824,0.43350877,-0.00123550,-0.00906713,0.00065206,-0.00078253,-0.00
 008734,-0.00030603,0.00288500,-0.00146112,-0.00073975,-0.00132306,0.00
 215160,0.00090858,-0.05226490,-0.02473962,-0.02580571,0.10150263,0.073
 09952,0.00503131,-0.00174602,-0.01327871,-0.00013982,-0.00049459,-0.00
 041586,0.00121149,-0.00129823,0.00140056,-0.00020317,0.00026773,-0.000
 76543,-0.23529305,-0.04875335,-0.22556798,0.07479503,-0.06940458,0.650
 62141,0.00020817,-0.00145596,0.00489660,-0.00015601,0.00028828,0.00017
 807,-0.00001804,0.00029846,-0.00069793,0.00001620,0.00043200,0.0004787
 3,0.00908670,0.00700233,-0.04237391,-0.09782418,-0.04807072,0.15266888
 ,0.08960533,0.00153083,0.00287947,-0.00104441,0.00032404,-0.00020104,-
 0.00011859,-0.00061348,-0.00052184,0.00067089,0.00062240,-0.00067348,-
 0.00075019,-0.00358616,0.00739485,-0.00899098,-0.04021447,-0.04350005,
 0.11900319,0.04282315,0.03551610,0.00278409,0.00100602,0.00023622,0.00
 013965,0.00004339,0.00015933,-0.00075707,0.00064336,0.00002141,0.00039
 010,-0.00057992,-0.00002267,0.01853981,0.01395881,-0.03075067,0.095361
 59,0.09452817,-0.41016836,-0.11573441,-0.10893481,0.43995852,0.0023558
 5,-0.00074886,-0.00201485,0.00031609,0.00012606,-0.00039085,-0.0013884
 4,-0.00004475,-0.00004927,0.00039336,-0.00028630,0.00073533,-0.0000485
 0,0.00024414,0.00031798,-0.00033388,-0.00016131,-0.00012732,0.00003083
 ,0.00003855,0.00006214,0.05343360,0.00033504,0.00375816,-0.00184340,0.
 00002024,0.00006003,0.00027618,-0.00021421,-0.00172848,-0.00167335,0.0
 0001700,-0.00002507,0.00090407,0.00010404,0.00022011,-0.00007621,-0.00
 026767,-0.00031453,0.00050110,-0.00011950,0.00011751,-0.00002220,-0.11
 364771,0.32476366,0.00222126,-0.00560629,-0.00352909,-0.00011855,0.000
 13108,-0.00004323,-0.00005085,0.00038995,0.00151428,0.00016187,0.00023
 900,-0.00037685,0.00008444,-0.00016765,0.00002857,-0.00015905,0.000373
 05,-0.00037071,0.00014267,-0.00010143,-0.00000310,-0.09110919,0.189580
 35,0.18762863,-0.00793658,0.00054920,0.00083668,-0.00018032,-0.0002333
 4,0.00020456,0.00182453,0.00063066,0.00000238,-0.00075808,0.00055699,-
 0.00069241,0.00071012,-0.00002103,-0.00161039,0.00090646,-0.00006674,0
 .00164833,-0.00034873,0.00001800,-0.00023818,-0.06110697,0.09485296,0.
 09301673,0.08883795,0.00095815,-0.01191090,0.00083753,-0.00063397,-0.0
 0071158,0.00006898,0.00117978,-0.00167704,0.00308477,0.00016420,-0.000
 06750,-0.00071898,0.00005029,-0.00098195,0.00015856,-0.00019612,0.0015
 2666,-0.00025472,0.00016894,-0.00019449,-0.00007830,0.12393644,-0.2947
 8259,-0.21120027,-0.06585041,0.67544182,-0.00931617,-0.00014968,-0.039
 42046,0.00086241,0.00044484,-0.00017243,-0.00014859,0.00595434,-0.0006
 3767,-0.00088685,0.00034322,-0.00085730,-0.00045448,0.00020464,-0.0006
 7339,0.00194866,-0.00028329,-0.00130451,0.00021779,-0.00014039,0.00031
 638,0.09135474,-0.15646193,-0.19677157,-0.12831433,-0.00413672,0.40846
 757,0.00253202,0.00073633,-0.00238852,0.00007169,0.00009148,-0.0000570
 9,-0.00003155,0.00022746,-0.00009649,0.00009792,0.00007334,-0.00005291
 ,-0.00011243,-0.00037700,0.00059815,-0.00064320,0.00032867,-0.00034012
 ,0.00003158,0.00001511,0.00006643,0.00666082,0.01889990,-0.00409191,-0
 .02300138,-0.05927107,0.04479553,0.01540740,-0.00066239,0.00340494,0.0
 0190033,0.00007351,0.00014033,0.00005176,-0.00009905,0.00088551,-0.000
 44426,-0.00004474,0.00003459,0.00005986,-0.00015533,0.00032483,0.00003
 178,0.00034645,-0.00056378,-0.00036330,0.00002454,0.00008348,0.0000655
 8,-0.00883518,-0.03298019,0.02732045,-0.02993845,-0.36501765,0.1607616
 3,0.03909961,0.39530900,0.00074112,0.00650214,-0.00324388,0.00018089,0
 .00026633,-0.00000459,-0.00038108,0.00091254,-0.00045949,-0.00002553,0
 .00010518,-0.00001165,0.00011678,0.00026072,-0.00007581,-0.00003714,-0
 .00043468,-0.00015564,0.00005559,0.00000897,-0.00000224,0.00190760,-0.
 03176291,0.01234990,0.03576754,0.21458116,-0.16543350,-0.03860784,-0.1
 8958583,0.15586425,-0.00435108,0.00162176,0.00153051,-0.00039835,-0.00
 076730,-0.00005526,0.00065579,0.00002215,0.00008511,-0.00012845,-0.000
 05315,-0.00006676,-0.00004728,0.00004557,-0.00000286,0.00032955,-0.000
 19948,-0.00016572,-0.00005281,0.00006047,0.00003255,-0.00009510,-0.000
 09989,-0.00020434,0.00034819,-0.00015808,0.00058240,-0.00007422,0.0001
 8415,-0.00008172,0.35479280,-0.00193811,0.00300628,0.00002619,-0.00113
 764,-0.00075990,0.00010901,0.00095444,-0.00072288,-0.00017742,-0.00015
 900,-0.00005698,-0.00000450,-0.00004270,0.00010467,0.00000823,0.000090
 11,-0.00026107,-0.00013329,-0.00002101,0.00009146,0.00001953,-0.000097
 62,0.00019957,-0.00015599,-0.00006630,-0.00049799,0.00020991,0.0001784
 8,0.00021504,0.00015699,-0.08448253,0.02559372,-0.00149870,0.00018306,
 0.00496360,-0.00017888,0.00015546,0.00053531,-0.00005804,-0.00113059,-
 0.00084499,0.00009652,-0.00004518,0.00007231,-0.00002982,0.00000864,0.
 00015797,-0.00017583,-0.00001610,-0.00035937,0.00013423,-0.00001464,0.
 00000006,-0.00043083,-0.00015297,-0.00014425,0.00065538,0.00002260,-0.
 00025117,-0.00037362,0.00012960,-0.00006259,-0.19693604,0.04161699,0.1
 8322368,-0.02853485,-0.00492134,-0.00711605,-0.00133444,0.00027610,0.0
 0015842,-0.00167963,-0.00646662,-0.00155467,0.00100706,-0.00056362,-0.
 00010080,0.00021622,-0.00008422,0.00028360,-0.00042557,0.00017334,-0.0
 0070628,0.00039195,-0.00017917,-0.00028057,-0.00027649,0.00001155,0.00
 031874,-0.00006314,0.00009907,-0.00071025,-0.00027307,-0.00011315,0.00
 029211,-0.35516392,0.09207830,0.15133608,0.45506223,0.00147144,-0.0088
 0780,0.00072875,0.00143539,0.00231252,0.00072885,-0.00297279,-0.001420
 30,-0.00115521,0.00082698,-0.00022650,-0.00006150,0.00016800,-0.000275
 64,0.00001335,-0.00024115,0.00114809,0.00019815,0.00014057,-0.00040927
 ,-0.00013564,0.00012259,-0.00032713,0.00039012,0.00007088,0.00119543,-
 0.00030409,-0.00021430,-0.00045393,-0.00033868,0.07860750,-0.03375150,
 -0.03017284,-0.10844337,0.07209429,-0.00783041,-0.00247700,-0.01540958
 ,0.00000015,-0.00005571,-0.00089169,-0.00172497,-0.00235538,0.00081688
 ,0.00043894,-0.00056797,-0.00017034,0.00026971,-0.00012774,-0.00033514
 ,0.00056213,0.00022030,0.00047719,-0.00013194,-0.00016776,-0.00019867,
 0.00024972,0.00044175,0.00030112,-0.00134249,0.00002536,-0.00138476,0.
 00030344,-0.00044542,0.00017203,0.20815181,-0.05289683,-0.16097708,-0.
 10053097,-0.04983472,0.62939357,0.00118492,0.00108310,-0.00557887,0.00
 011372,-0.00049720,-0.00046843,-0.00029190,-0.00050765,0.00056290,-0.0
 0004322,-0.00026819,-0.00013347,-0.00001155,0.00001972,-0.00015936,0.0
 0036359,-0.00010866,0.00024669,-0.00025275,0.00000300,-0.00010773,0.00
 000518,0.00009256,-0.00000504,-0.00031739,-0.00006279,-0.00001987,0.00
 003469,-0.00006112,0.00001700,0.00443594,-0.00627945,0.04793267,-0.065
 52197,0.02835856,-0.09674152,0.06097470,-0.00136848,0.00301946,-0.0013
 9799,-0.00063256,-0.00083885,-0.00079439,0.00047110,-0.00051511,0.0006
 2928,-0.00023207,-0.00017434,-0.00008586,-0.00005003,0.00009327,-0.000
 02386,0.00022019,-0.00042427,-0.00014671,-0.00003182,0.00023120,0.0000
 6649,-0.00000926,0.00010586,-0.00007627,-0.00011570,-0.00021735,0.0000
 1420,0.00001751,0.00008815,0.00005461,0.00441221,0.00762291,-0.0120220
 2,0.01994402,-0.03342835,0.10468236,-0.02338323,0.02544045,-0.00273434
 ,0.00113099,-0.00083189,-0.00038291,-0.00063731,-0.00000714,0.00073229
 ,0.00066111,0.00021112,-0.00016659,0.00004500,0.00007306,-0.00003530,0
 .00002120,-0.00002023,0.00036439,-0.00016154,-0.00015083,0.00005187,0.
 00006678,0.00019622,-0.00011563,-0.00003531,-0.00013251,0.00030194,-0.
 00008374,0.00037715,-0.00008468,0.00009261,-0.00005872,-0.01266762,0.0
 1124252,-0.02601218,-0.03991170,0.07947915,-0.45177157,0.05454697,-0.0
 9144893,0.47792210,0.00370238,-0.00160004,-0.00058909,0.00015548,0.000
 01707,0.00001158,-0.00031607,-0.00018477,-0.00000092,0.00006358,-0.000
 16810,-0.00002525,0.00003820,-0.00006104,-0.00009981,0.00087832,0.0003
 4488,-0.00005979,0.00002459,-0.00023069,-0.00002110,0.00011670,-0.0000
 5824,0.00018496,-0.00024880,0.00049358,0.00087902,0.00027782,-0.000024
 02,-0.00012516,-0.00017828,0.00119900,-0.00028937,-0.00233193,-0.00245
 950,0.00013936,0.00024188,0.00048168,-0.00019338,0.35264613,-0.0075622
 1,-0.00610257,-0.00459559,-0.00003252,-0.00018177,-0.00005881,0.000407
 02,0.00084734,0.00025944,-0.00018194,0.00006086,-0.00003623,-0.0001205
 9,-0.00003418,-0.00001665,-0.00061816,-0.00017525,0.00082167,-0.000417
 47,-0.00012665,-0.00009148,-0.00011560,0.00009547,-0.00025374,0.000385
 79,-0.00060173,-0.00031914,-0.00013116,0.00015198,-0.00010350,0.000282
 30,-0.00013677,-0.00020546,-0.00040587,0.00279629,0.00027134,0.0002282
 0,-0.00038442,0.00026563,0.15451072,0.12078882,0.00006990,0.00169306,0
 .00225011,0.00000797,0.00005728,0.00005639,-0.00008309,-0.00025918,-0.
 00007899,0.00001706,-0.00001664,0.00001303,0.00009601,-0.00000225,0.00
 005870,0.00055055,0.00031727,-0.00035693,0.00022013,0.00019177,0.00009
 286,-0.00010242,-0.00008798,-0.00005520,0.00037656,-0.00002582,-0.0003
 9563,-0.00048964,-0.00032069,-0.00008576,0.00008734,-0.00050891,0.0005
 7878,0.00041402,-0.00092525,-0.00188672,-0.00047827,0.00107310,0.00017
 283,0.14013400,0.09584057,0.08900957,-0.01322098,0.00031400,-0.0000951
 1,-0.00031173,-0.00033523,-0.00010754,0.00140308,0.00001175,0.00013845
 ,-0.00034261,0.00037189,0.00005509,-0.00011611,0.00038477,0.00034187,-
 0.00240504,-0.00381541,0.00157352,-0.00088206,-0.00000342,-0.00041748,
 -0.00013429,-0.00001134,-0.00035502,0.00207635,-0.00060286,0.00023276,
 -0.00145680,0.00030566,0.00006018,-0.00011082,-0.00034056,-0.00030384,
 -0.00206258,0.00356286,-0.00202265,-0.00092645,0.00002083,0.00029592,-
 0.32248181,-0.16860202,-0.16310720,0.67907603,0.00000501,-0.05446700,0
 .00357587,0.00007710,0.00085130,0.00033537,0.00001313,0.00273977,-0.00
 080637,-0.00015035,0.00076217,0.00022465,-0.00051350,-0.00075449,0.001
 36444,-0.00746810,-0.00018586,0.00140896,-0.00084195,-0.00038160,-0.00
 069962,-0.00046823,0.00076653,-0.00074992,-0.00035707,-0.00111082,-0.0
 0577089,0.00015445,-0.00173656,-0.00051531,0.00038446,-0.00062043,0.00
 162984,0.00801871,-0.00029774,0.00235299,0.00092695,-0.00045642,-0.000
 61785,-0.12855217,-0.12786659,-0.10008253,0.00256080,0.30280683,-0.000
 25388,-0.00976601,-0.00788066,0.00001757,-0.00016942,-0.00008884,0.000
 09960,0.00094639,0.00069931,-0.00008398,-0.00004702,-0.00008957,0.0003
 7641,0.00053715,-0.00089743,0.00103612,0.00062685,0.00250809,-0.000596
 80,-0.00065308,-0.00015147,-0.00025511,0.00045797,-0.00039379,-0.00002
 242,-0.00261168,-0.00134894,0.00016697,0.00129885,0.00147397,-0.000185
 70,0.00047699,-0.00093958,-0.00142893,0.00112892,0.00237202,0.00064903
 ,-0.00077267,-0.00003793,-0.11617899,-0.09497456,-0.09742806,0.0053241
 9,0.19040628,0.19095276,0.00382482,0.00173153,0.00087361,0.00006745,0.
 00016901,0.00002798,-0.00035296,0.00016275,-0.00006853,0.00015882,-0.0
 0004162,0.00000657,-0.00024783,-0.00126614,0.00011624,-0.00219141,0.00
 279381,-0.00013996,0.00013924,-0.00060817,0.00018018,0.00007124,0.0000
 8527,-0.00003673,-0.00074219,-0.00027515,-0.00102276,0.00047871,-0.000
 10048,0.00011966,0.00003804,0.00006457,0.00012010,0.00099013,-0.000433
 68,0.00020967,0.00001061,0.00025561,-0.00000123,-0.03258817,0.02237352
 ,0.02228708,-0.33810417,0.12621076,0.11133594,0.36844767,0.00785844,-0
 .00639788,-0.00432053,0.00016874,0.00002567,0.00001536,-0.00041644,0.0
 0084866,0.00018734,0.00004151,-0.00018135,-0.00007916,-0.00025840,-0.0
 0014465,-0.00028476,0.00060256,0.00285417,0.00039401,-0.00021985,-0.00
 030565,0.00021061,-0.00005297,0.00007109,-0.00011244,-0.00041544,-0.00
 039233,-0.00036665,0.00017117,0.00011425,-0.00010772,0.00013986,-0.000
 02614,0.00001361,0.00057629,-0.00014847,0.00093443,0.00045620,-0.00016
 218,-0.00002032,-0.02370834,0.01086918,0.00305621,0.16617829,-0.120049
 09,-0.08688495,-0.15112160,0.11302473,0.00035484,0.00166094,0.00251022
 ,-0.00001243,0.00001139,0.00002988,0.00005225,-0.00022734,-0.00009412,
 0.00000979,0.00002969,0.00006633,-0.00026785,-0.00073336,0.00059891,-0
 .00044124,-0.00047459,-0.00211294,0.00049044,0.00097468,0.00031617,-0.
 00003203,-0.00004515,-0.00000220,-0.00058989,0.00033127,-0.00050978,0.
 00065229,-0.00055296,-0.00026628,-0.00010369,0.00001057,0.00005950,-0.
 00046275,0.00026063,-0.00050725,-0.00026270,0.00024866,0.00007052,-0.0
 2376607,0.00319649,0.00805501,0.15838686,-0.09205591,-0.08874988,-0.13
 400783,0.08736496,0.08053590\\-0.00316036,0.00567314,-0.00792147,0.010
 97113,-0.00280526,-0.00322780,-0.00265709,0.00539018,0.01420309,-0.008
 66743,-0.00247597,-0.00789948,-0.00351557,0.00509380,-0.01071785,0.004
 82428,-0.01127854,-0.00093142,0.00161304,0.00367197,0.01090968,-0.0036
 5834,-0.01163593,-0.00125367,0.01219905,0.00049923,0.00507750,-0.00604
 516,0.01124989,-0.00009359,0.00547007,0.00455445,-0.00941240,-0.004438
 02,-0.01154122,-0.00181440,-0.00310573,0.00449154,0.01038998,0.0106940
 3,0.00320054,-0.00517529,0.00018990,-0.00688483,0.01363133,-0.01071379
 ,0.00279702,-0.00576421\\\@


 The juvenile sea squirt wanders through the sea searching
 for a suitable rock or hunk of coral to cling to and make
 its home for life.  For this task it has a rudimentary
 nervous system.  When it finds its spot and takes root, it
 doesn't need its brain any more so it eats it.
 It's rather like getting tenure.

                               -- source unknown
 Job cpu time:       0 days  0 hours 28 minutes 33.9 seconds.
 Elapsed time:       0 days  0 hours  1 minutes  2.0 seconds.
 File lengths (MBytes):  RWF=   1771 Int=      0 D2E=      0 Chk=      3 Scr=      1
 Normal termination of Gaussian 16 at Wed May 11 21:34:54 2022.
