 Entering Gaussian System, Link 0=g16
 Initial command:
 /cm/shared/apps/gaussian/intel/EM64T/SSE4_2-enabled/binary//g16/l1.exe "/scratch/florez/25750/Gau-31173.inp" -scrdir="/scratch/florez/25750/"
 Entering Link 1 = /cm/shared/apps/gaussian/intel/EM64T/SSE4_2-enabled/binary//g16/l1.exe PID=     31176.
  
 Copyright (c) 1988,1990,1992,1993,1995,1998,2003,2009,2016,
            Gaussian, Inc.  All Rights Reserved.
  
 This is part of the Gaussian(R) 16 program.  It is based on
 the Gaussian(R) 09 system (copyright 2009, Gaussian, Inc.),
 the Gaussian(R) 03 system (copyright 2003, Gaussian, Inc.),
 the Gaussian(R) 98 system (copyright 1998, Gaussian, Inc.),
 the Gaussian(R) 94 system (copyright 1995, Gaussian, Inc.),
 the Gaussian 92(TM) system (copyright 1992, Gaussian, Inc.),
 the Gaussian 90(TM) system (copyright 1990, Gaussian, Inc.),
 the Gaussian 88(TM) system (copyright 1988, Gaussian, Inc.),
 the Gaussian 86(TM) system (copyright 1986, Carnegie Mellon
 University), and the Gaussian 82(TM) system (copyright 1983,
 Carnegie Mellon University). Gaussian is a federally registered
 trademark of Gaussian, Inc.
  
 This software contains proprietary and confidential information,
 including trade secrets, belonging to Gaussian, Inc.
  
 This software is provided under written license and may be
 used, copied, transmitted, or stored only in accord with that
 written license.
  
 The following legend is applicable only to US Government
 contracts under FAR:
  
                    RESTRICTED RIGHTS LEGEND
  
 Use, reproduction and disclosure by the US Government is
 subject to restrictions as set forth in subparagraphs (a)
 and (c) of the Commercial Computer Software - Restricted
 Rights clause in FAR 52.227-19.
  
 Gaussian, Inc.
 340 Quinnipiac St., Bldg. 40, Wallingford CT 06492
  
  
 ---------------------------------------------------------------
 Warning -- This program may not be used in any manner that
 competes with the business of Gaussian, Inc. or will provide
 assistance to any competitor of Gaussian, Inc.  The licensee
 of this program is prohibited from giving any competitor of
 Gaussian, Inc. access to this program.  By using this program,
 the user acknowledges that Gaussian, Inc. is engaged in the
 business of creating and licensing software in the field of
 computational chemistry and represents and warrants to the
 licensee that it is not a competitor of Gaussian, Inc. and that
 it will not use this program in any manner prohibited above.
 ---------------------------------------------------------------
  

 Cite this work as:
 Gaussian 16, Revision A.03,
 M. J. Frisch, G. W. Trucks, H. B. Schlegel, G. E. Scuseria, 
 M. A. Robb, J. R. Cheeseman, G. Scalmani, V. Barone, 
 G. A. Petersson, H. Nakatsuji, X. Li, M. Caricato, A. V. Marenich, 
 J. Bloino, B. G. Janesko, R. Gomperts, B. Mennucci, H. P. Hratchian, 
 J. V. Ortiz, A. F. Izmaylov, J. L. Sonnenberg, D. Williams-Young, 
 F. Ding, F. Lipparini, F. Egidi, J. Goings, B. Peng, A. Petrone, 
 T. Henderson, D. Ranasinghe, V. G. Zakrzewski, J. Gao, N. Rega, 
 G. Zheng, W. Liang, M. Hada, M. Ehara, K. Toyota, R. Fukuda, 
 J. Hasegawa, M. Ishida, T. Nakajima, Y. Honda, O. Kitao, H. Nakai, 
 T. Vreven, K. Throssell, J. A. Montgomery, Jr., J. E. Peralta, 
 F. Ogliaro, M. J. Bearpark, J. J. Heyd, E. N. Brothers, K. N. Kudin, 
 V. N. Staroverov, T. A. Keith, R. Kobayashi, J. Normand, 
 K. Raghavachari, A. P. Rendell, J. C. Burant, S. S. Iyengar, 
 J. Tomasi, M. Cossi, J. M. Millam, M. Klene, C. Adamo, R. Cammi, 
 J. W. Ochterski, R. L. Martin, K. Morokuma, O. Farkas, 
 J. B. Foresman, and D. J. Fox, Gaussian, Inc., Wallingford CT, 2016.
 
 ******************************************
 Gaussian 16:  ES64L-G16RevA.03 25-Dec-2016
                11-May-2022 
 ******************************************
 %chk=w6s14.chk
 %nproc=28
 Will use up to   28 processors via shared memory.
 %mem=500gb
 ------------------------
 #p MP2(full) SDDAll freq
 ------------------------
 1/10=4,30=1,38=1/1,3;
 2/12=2,17=6,18=5,40=1/2;
 3/5=17,6=6,11=9,25=1,30=1,71=2,140=1/1,2,3;
 4//1;
 5/5=2,38=5,98=1/2;
 8/6=3,8=1,10=90,19=11/1;
 9/15=3,16=-3/6;
 11/6=1,8=1,15=11,17=11,24=-1,27=1,28=-2,29=300,32=6,42=3/1,2,10;
 10/6=2,21=1/2;
 8/6=4,8=1,10=90,19=11/11,4;
 10/5=1,20=4/2;
 11/12=2,14=11,16=1,28=-2,42=3/2,10,12;
 6/7=2,8=2,9=2,10=2/1;
 7/8=1,10=1,12=2,25=1,44=2/1,2,3,16;
 1/10=4,30=1/3;
 99//99;
 Leave Link    1 at Wed May 11 22:02:16 2022, MaxMem= 67108864000 cpu:               1.0 elap:               0.0
 (Enter /cm/shared/apps/gaussian/intel/EM64T/SSE4_2-enabled/binary//g16/l101.exe)
 ----------------------------------------------------------------------
 file 'w6s14.log' Now we use Def2-QZVPPD, but it was opt at: ---'ZORA-S
 R+SO PBE QZ4P'---
 ----------------------------------------------------------------------
 Symbolic Z-matrix:
 Charge =  2 Multiplicity = 1
 Hg(Fragment=1)       -0.00187   0.00095   0.00299 
 H(Fragment=2)        -1.02055   2.10342   1.98573 
 O(Fragment=2)        -1.13799   1.84828   1.05291 
 H(Fragment=2)        -2.09356   1.91746   0.8726 
 H(Fragment=2)         2.58406   0.67033   1.50968 
 O(Fragment=2)         2.00086  -0.09103   1.33836 
 H(Fragment=2)         1.91223  -0.5607    2.18752 
 H(Fragment=2)         0.45768   2.68531  -1.20637 
 O(Fragment=2)         0.5666    1.77527  -1.53907 
 H(Fragment=2)         1.37188   1.78471  -2.08707 
 H(Fragment=2)        -0.46285  -2.68461   1.2041 
 O(Fragment=2)        -0.56745  -1.77584   1.54083 
 H(Fragment=2)        -1.37043  -1.78514   2.09271 
 H(Fragment=2)         2.08858  -1.91643  -0.87841 
 O(Fragment=2)         1.13275  -1.84321  -1.0555 
 H(Fragment=2)         1.011    -2.09752  -1.98813 
 H(Fragment=2)        -1.91356   0.5559   -2.18769 
 O(Fragment=2)        -2.00325   0.09179  -1.33503 
 H(Fragment=2)        -2.58514  -0.67192  -1.50246 
 
 ITRead=  0  0  0  0  0  0  0  0  0  0  0  0  0  0  0  0  0  0  0
 MicOpt= -1 -1 -1 -1 -1 -1 -1 -1 -1 -1 -1 -1 -1 -1 -1 -1 -1 -1 -1
 NAtoms=     19 NQM=       19 NQMF=       0 NMMI=      0 NMMIF=      0
                NMic=       0 NMicF=      0.
                    Isotopes and Nuclear Properties:
 (Nuclear quadrupole moments (NQMom) in fm**2, nuclear magnetic moments (NMagM)
  in nuclear magnetons)

  Atom         1           2           3           4           5           6           7           8           9          10
 IAtWgt=         202           1          16           1           1          16           1           1          16           1
 AtmWgt= 201.9706000   1.0078250  15.9949146   1.0078250   1.0078250  15.9949146   1.0078250   1.0078250  15.9949146   1.0078250
 NucSpn=           0           1           0           1           1           0           1           1           0           1
 AtZEff=  -0.0000000  -0.0000000  -0.0000000  -0.0000000  -0.0000000  -0.0000000  -0.0000000  -0.0000000  -0.0000000  -0.0000000
 NQMom=    0.0000000   0.0000000   0.0000000   0.0000000   0.0000000   0.0000000   0.0000000   0.0000000   0.0000000   0.0000000
 NMagM=    0.0000000   2.7928460   0.0000000   2.7928460   2.7928460   0.0000000   2.7928460   2.7928460   0.0000000   2.7928460
 AtZNuc=  80.0000000   1.0000000   8.0000000   1.0000000   1.0000000   8.0000000   1.0000000   1.0000000   8.0000000   1.0000000

  Atom        11          12          13          14          15          16          17          18          19
 IAtWgt=           1          16           1           1          16           1           1          16           1
 AtmWgt=   1.0078250  15.9949146   1.0078250   1.0078250  15.9949146   1.0078250   1.0078250  15.9949146   1.0078250
 NucSpn=           1           0           1           1           0           1           1           0           1
 AtZEff=  -0.0000000  -0.0000000  -0.0000000  -0.0000000  -0.0000000  -0.0000000  -0.0000000  -0.0000000  -0.0000000
 NQMom=    0.0000000   0.0000000   0.0000000   0.0000000   0.0000000   0.0000000   0.0000000   0.0000000   0.0000000
 NMagM=    2.7928460   0.0000000   2.7928460   2.7928460   0.0000000   2.7928460   2.7928460   0.0000000   2.7928460
 AtZNuc=   1.0000000   8.0000000   1.0000000   1.0000000   8.0000000   1.0000000   1.0000000   8.0000000   1.0000000
 Leave Link  101 at Wed May 11 22:02:16 2022, MaxMem= 67108864000 cpu:               2.8 elap:               0.1
 (Enter /cm/shared/apps/gaussian/intel/EM64T/SSE4_2-enabled/binary//g16/l103.exe)

 GradGradGradGradGradGradGradGradGradGradGradGradGradGradGradGradGradGrad
 Berny optimization.
 Initialization pass.
 Trust Radius=3.00D-01 FncErr=1.00D-07 GrdErr=1.00D-07 EigMax=2.50D+02 EigMin=1.00D-04
 Number of steps in this run=      2 maximum allowed number of steps=      2.
 GradGradGradGradGradGradGradGradGradGradGradGradGradGradGradGradGradGrad

 Leave Link  103 at Wed May 11 22:02:16 2022, MaxMem= 67108864000 cpu:               0.9 elap:               0.1
 (Enter /cm/shared/apps/gaussian/intel/EM64T/SSE4_2-enabled/binary//g16/l202.exe)
                          Input orientation:                          
 ---------------------------------------------------------------------
 Center     Atomic      Atomic             Coordinates (Angstroms)
 Number     Number       Type             X           Y           Z
 ---------------------------------------------------------------------
      1         80           0       -0.001872    0.000949    0.002989
      2          1           0       -1.020552    2.103419    1.985730
      3          8           0       -1.137987    1.848277    1.052913
      4          1           0       -2.093556    1.917458    0.872601
      5          1           0        2.584061    0.670333    1.509680
      6          8           0        2.000855   -0.091031    1.338364
      7          1           0        1.912233   -0.560696    2.187524
      8          1           0        0.457680    2.685311   -1.206373
      9          8           0        0.566595    1.775270   -1.539074
     10          1           0        1.371878    1.784711   -2.087074
     11          1           0       -0.462845   -2.684609    1.204104
     12          8           0       -0.567445   -1.775844    1.540828
     13          1           0       -1.370426   -1.785141    2.092712
     14          1           0        2.088577   -1.916434   -0.878410
     15          8           0        1.132754   -1.843214   -1.055499
     16          1           0        1.011002   -2.097520   -1.988133
     17          1           0       -1.913560    0.555896   -2.187692
     18          8           0       -2.003252    0.091786   -1.335032
     19          1           0       -2.585137   -0.671921   -1.502463
 ---------------------------------------------------------------------
                    Distance matrix (angstroms):
                    1          2          3          4          5
     1  Hg   0.000000
     2  H    3.064205   0.000000
     3  O    2.409506   0.974185   0.000000
     4  H    2.967216   1.557233   0.974890   0.000000
     5  H    3.066797   3.908145   3.930627   4.882754   0.000000
     6  O    2.408859   3.789933   3.700639   4.584230   0.974245
     7  H    2.958283   3.967299   4.048992   4.890462   1.557645
     8  H    2.979856   3.565570   2.889836   3.379428   3.994819
     9  O    2.418538   3.879557   3.103116   3.593438   3.819156
    10  H    3.072029   4.734240   4.020321   4.559225   3.955738
    11  H    2.977817   4.883358   4.585382   4.893683   4.542318
    12  O    2.416985   3.930894   3.701058   4.051669   3.989579
    13  H    3.070830   3.905734   3.786415   3.964950   4.691188
    14  H    2.970387   5.833455   5.321069   5.937592   3.555256
    15  O    2.410127   5.427864   4.819624   5.316888   3.873545
    16  H    3.064972   6.129167   5.425443   5.825987   4.729717
    17  H    2.960000   4.539795   3.573973   3.354347   5.823423
    18  O    2.409164   4.004975   3.088078   2.866161   5.428678
    19  H    3.064702   4.724186   3.869830   3.547882   6.131497
                    6          7          8          9         10
     6  O    0.000000
     7  H    0.974429   0.000000
     8  H    4.070031   4.916383   0.000000
     9  O    3.717503   4.599458   0.975052   0.000000
    10  H    3.955711   4.905620   1.556429   0.974102   0.000000
    11  H    3.579733   3.334534   5.957668   5.336225   5.845758
    12  O    3.078271   2.836125   5.338530   4.835520   5.440606
    13  H    3.847673   3.504869   5.849006   5.442283   6.142856
    14  H    2.872956   3.356944   4.893204   4.047417   3.958914
    15  O    3.091007   3.573463   4.581051   3.694294   3.779308
    16  H    4.008914   4.539841   4.877785   3.923984   3.900223
    17  H    5.307940   5.918275   3.334693   2.838793   3.509161
    18  O    4.818023   5.307085   3.577585   3.078939   3.850073
    19  H    5.425777   5.818480   4.540640   3.990426   4.694122
                   11         12         13         14         15
    11  H    0.000000
    12  O    0.974771   0.000000
    13  H    1.556397   0.974393   0.000000
    14  H    3.381821   3.595404   4.561744   0.000000
    15  O    2.891312   3.104212   4.022501   0.974843   0.000000
    16  H    3.564727   3.879244   4.735195   1.557384   0.974321
    17  H    4.910166   4.599011   4.908901   4.883005   4.039507
    18  O    4.065518   3.717547   3.958883   4.580886   3.695524
    19  H    3.985040   3.814623   3.954752   4.876665   3.923572
                   16         17         18         19
    16  H    0.000000
    17  H    3.953923   0.000000
    18  O    3.782239   0.974921   0.000000
    19  H    3.898772   1.558233   0.974614   0.000000
 Stoichiometry    H12HgO6(2+)
 Framework group  C1[X(H12HgO6)]
 Deg. of freedom    51
 Full point group                 C1      NOp   1
 Largest Abelian subgroup         C1      NOp   1
 Largest concise Abelian subgroup C1      NOp   1
                         Standard orientation:                         
 ---------------------------------------------------------------------
 Center     Atomic      Atomic             Coordinates (Angstroms)
 Number     Number       Type             X           Y           Z
 ---------------------------------------------------------------------
      1         80           0       -0.000267   -0.001095   -0.000172
      2          1           0        1.365758   -2.569338   -0.963216
      3          8           0        1.592975   -1.732565   -0.519121
      4          1           0        2.214422   -1.966170    0.194771
      5          1           0       -1.423679   -0.438343   -2.681208
      6          8           0       -1.631787   -0.381061   -1.731174
      7          1           0       -2.270192   -1.094674   -1.550321
      8          1           0        2.267286    0.785625   -1.766190
      9          8           0        1.646754    1.292138   -1.210212
     10          1           0        1.444581    2.105504   -1.706635
     11          1           0       -2.264805   -0.780760    1.769400
     12          8           0       -1.649051   -1.288928    1.210123
     13          1           0       -1.449469   -2.104885    1.703906
     14          1           0       -2.210429    1.974231   -0.191156
     15          8           0       -1.587021    1.736900    0.519728
     16          1           0       -1.356983    2.571627    0.966511
     17          1           0        2.265673    1.100181    1.553633
     18          8           0        1.630701    0.381994    1.731088
     19          1           0        1.418622    0.436739    2.680771
 ---------------------------------------------------------------------
 Rotational constants (GHZ):           1.3544318           1.0522537           1.0445882
 Leave Link  202 at Wed May 11 22:02:16 2022, MaxMem= 67108864000 cpu:               0.2 elap:               0.0
 (Enter /cm/shared/apps/gaussian/intel/EM64T/SSE4_2-enabled/binary//g16/l301.exe)
 Standard basis: SDDAll (6D, 10F)
 Ernie: Thresh=  0.10000D-02 Tol=  0.10000D-05 Strict=F.
 There are   129 symmetry adapted cartesian basis functions of A   symmetry.
 There are   129 symmetry adapted basis functions of A   symmetry.
   129 basis functions,   227 primitive gaussians,   129 cartesian basis functions
    33 alpha electrons       33 beta electrons
       nuclear repulsion energy       375.4991496003 Hartrees.
 IExCor=    0 DFT=F Ex=HF Corr=None ExCW=0 ScaHFX=  1.000000
 ScaDFX=  1.000000  1.000000  1.000000  1.000000 ScalE2=  1.000000  1.000000
 IRadAn=      5 IRanWt=     -1 IRanGd=            0 ICorTp=0 IEmpDi=  4
 NAtoms=   19 NActive=   19 NUniq=   19 SFac= 1.00D+00 NAtFMM=   60 NAOKFM=F Big=F
 Integral buffers will be    131072 words long.
 Raffenetti 1 integral format.
 Two-electron integral symmetry is turned on.
 Leave Link  301 at Wed May 11 22:02:16 2022, MaxMem= 67108864000 cpu:               2.4 elap:               0.1
 (Enter /cm/shared/apps/gaussian/intel/EM64T/SSE4_2-enabled/binary//g16/l302.exe)
 NPDir=0 NMtPBC=     1 NCelOv=     1 NCel=       1 NClECP=     1 NCelD=      1
         NCelK=      1 NCelE2=     1 NClLst=     1 CellRange=     0.0.
 One-electron integrals computed using PRISM.
 One-electron integral symmetry used in STVInt
   1 Symmetry operations used in ECPInt.
 ECPInt:  NShTT=    2346 NPrTT=    7709 LenC2=    2347 LenP2D=    6289.
 LDataN:  DoStor=T MaxTD1= 7 Len=  274
 NBasis=   129 RedAO= T EigKep=  3.84D-04  NBF=   129
 NBsUse=   129 1.00D-06 EigRej= -1.00D+00 NBFU=   129
 Leave Link  302 at Wed May 11 22:02:16 2022, MaxMem= 67108864000 cpu:               6.8 elap:               0.3
 (Enter /cm/shared/apps/gaussian/intel/EM64T/SSE4_2-enabled/binary//g16/l303.exe)
 DipDrv:  MaxL=1.
 Leave Link  303 at Wed May 11 22:02:16 2022, MaxMem= 67108864000 cpu:               1.0 elap:               0.1
 (Enter /cm/shared/apps/gaussian/intel/EM64T/SSE4_2-enabled/binary//g16/l401.exe)
 ExpMin= 2.00D-02 ExpMax= 4.71D+01 ExpMxC= 4.71D+01 IAcc=3 IRadAn=         5 AccDes= 0.00D+00
 Harris functional with IExCor=  205 and IRadAn=       5 diagonalized for initial guess.
 HarFok:  IExCor=  205 AccDes= 0.00D+00 IRadAn=         5 IDoV= 1 UseB2=F ITyADJ=14
 ICtDFT=  3500011 ScaDFX=  1.000000  1.000000  1.000000  1.000000
 Defaulting to unpruned grid for atomic number  80.
 FoFCou: FMM=F IPFlag=           0 FMFlag=      100000 FMFlg1=           0
         NFxFlg=           0 DoJE=T BraDBF=F KetDBF=T FulRan=T
         wScrn=  0.000000 ICntrl=       500 IOpCl=  0 I1Cent=   200000004 NGrid=           0
         NMat0=    1 NMatS0=      1 NMatT0=    0 NMatD0=    1 NMtDS0=    0 NMtDT0=    0
 Petite list used in FoFCou.
 Harris En= -257.111783490041    
 JPrj=0 DoOrth=F DoCkMO=F.
 Leave Link  401 at Wed May 11 22:02:17 2022, MaxMem= 67108864000 cpu:               9.7 elap:               0.4
 (Enter /cm/shared/apps/gaussian/intel/EM64T/SSE4_2-enabled/binary//g16/l502.exe)
 Integral symmetry usage will be decided dynamically.
 Closed shell SCF:
 Using DIIS extrapolation, IDIIS=  1040.
 NGot= 67108864000 LenX= 67108825298 LenY= 67108808216
 Requested convergence on RMS density matrix=1.00D-08 within 128 cycles.
 Requested convergence on MAX density matrix=1.00D-06.
 Requested convergence on             energy=1.00D-06.
 No special actions if energy rises.
 Fock matrices will be formed incrementally for  20 cycles.

 Cycle   1  Pass 0  IDiag  1:
 FoFJK:  IHMeth= 1 ICntrl=       0 DoSepK=F KAlg= 0 I1Cent=           0 FoldK=F
 IRaf= 990000000 NMat=       1 IRICut=       1 DoRegI=T DoRafI=F ISym2E= 0 IDoP0=0 IntGTp=1.
 FoFCou: FMM=F IPFlag=           0 FMFlag=      100000 FMFlg1=           0
         NFxFlg=           0 DoJE=F BraDBF=F KetDBF=F FulRan=T
         wScrn=  0.000000 ICntrl=         0 IOpCl=  0 I1Cent=           0 NGrid=           0
         NMat0=    1 NMatS0=      1 NMatT0=    0 NMatD0=    1 NMtDS0=    0 NMtDT0=    0
 Symmetry not used in FoFCou.
 E= -253.031656294467    
 DIIS: error= 7.76D-02 at cycle   1 NSaved=   1.
 NSaved= 1 IEnMin= 1 EnMin= -253.031656294467     IErMin= 1 ErrMin= 7.76D-02
 ErrMax= 7.76D-02  0.00D+00 EMaxC= 1.00D-01 BMatC= 5.74D-01 BMatP= 5.74D-01
 IDIUse=3 WtCom= 2.24D-01 WtEn= 7.76D-01
 Coeff-Com:  0.100D+01
 Coeff-En:   0.100D+01
 Coeff:      0.100D+01
 Gap=     0.727 Goal=   None    Shift=    0.000
 GapD=    0.727 DampG=2.000 DampE=0.250 DampFc=0.5000 IDamp=-1.
 Damping current iteration by 5.00D-01
 RMSDP=6.52D-03 MaxDP=1.68D-01              OVMax= 1.32D-01

 Cycle   2  Pass 0  IDiag  1:
 RMSU=  3.26D-03    CP:  1.00D+00
 E= -253.264280962358     Delta-E=       -0.232624667891 Rises=F Damp=T
 DIIS: error= 2.25D-02 at cycle   2 NSaved=   2.
 NSaved= 2 IEnMin= 2 EnMin= -253.264280962358     IErMin= 2 ErrMin= 2.25D-02
 ErrMax= 2.25D-02  0.00D+00 EMaxC= 1.00D-01 BMatC= 3.86D-02 BMatP= 5.74D-01
 IDIUse=3 WtCom= 7.75D-01 WtEn= 2.25D-01
 Coeff-Com: -0.262D+00 0.126D+01
 Coeff-En:   0.000D+00 0.100D+01
 Coeff:     -0.203D+00 0.120D+01
 Gap=     0.567 Goal=   None    Shift=    0.000
 RMSDP=1.97D-03 MaxDP=4.74D-02 DE=-2.33D-01 OVMax= 5.61D-02

 Cycle   3  Pass 0  IDiag  1:
 RMSU=  1.51D-03    CP:  1.00D+00  1.38D+00
 E= -253.462916555381     Delta-E=       -0.198635593024 Rises=F Damp=F
 DIIS: error= 6.20D-03 at cycle   3 NSaved=   3.
 NSaved= 3 IEnMin= 3 EnMin= -253.462916555381     IErMin= 3 ErrMin= 6.20D-03
 ErrMax= 6.20D-03  0.00D+00 EMaxC= 1.00D-01 BMatC= 2.01D-03 BMatP= 3.86D-02
 IDIUse=3 WtCom= 9.38D-01 WtEn= 6.20D-02
 Coeff-Com:  0.565D-01-0.210D+00 0.115D+01
 Coeff-En:   0.000D+00 0.000D+00 0.100D+01
 Coeff:      0.530D-01-0.197D+00 0.114D+01
 Gap=     0.552 Goal=   None    Shift=    0.000
 RMSDP=6.41D-04 MaxDP=2.16D-02 DE=-1.99D-01 OVMax= 1.68D-02

 Cycle   4  Pass 0  IDiag  1:
 RMSU=  3.82D-04    CP:  9.95D-01  1.33D+00  1.30D+00
 E= -253.465029960062     Delta-E=       -0.002113404681 Rises=F Damp=F
 DIIS: error= 1.50D-03 at cycle   4 NSaved=   4.
 NSaved= 4 IEnMin= 4 EnMin= -253.465029960062     IErMin= 4 ErrMin= 1.50D-03
 ErrMax= 1.50D-03  0.00D+00 EMaxC= 1.00D-01 BMatC= 2.54D-04 BMatP= 2.01D-03
 IDIUse=3 WtCom= 9.85D-01 WtEn= 1.50D-02
 Coeff-Com:  0.281D-01-0.124D+00 0.318D+00 0.778D+00
 Coeff-En:   0.000D+00 0.000D+00 0.000D+00 0.100D+01
 Coeff:      0.277D-01-0.122D+00 0.314D+00 0.781D+00
 Gap=     0.556 Goal=   None    Shift=    0.000
 RMSDP=1.49D-04 MaxDP=3.44D-03 DE=-2.11D-03 OVMax= 4.46D-03

 Cycle   5  Pass 0  IDiag  1:
 RMSU=  9.58D-05    CP:  9.95D-01  1.35D+00  1.36D+00  9.00D-01
 E= -253.465286581370     Delta-E=       -0.000256621307 Rises=F Damp=F
 DIIS: error= 2.94D-04 at cycle   5 NSaved=   5.
 NSaved= 5 IEnMin= 5 EnMin= -253.465286581370     IErMin= 5 ErrMin= 2.94D-04
 ErrMax= 2.94D-04  0.00D+00 EMaxC= 1.00D-01 BMatC= 7.18D-06 BMatP= 2.54D-04
 IDIUse=3 WtCom= 9.97D-01 WtEn= 2.94D-03
 Coeff-Com: -0.118D-01 0.411D-01-0.115D+00-0.238D+00 0.132D+01
 Coeff-En:   0.000D+00 0.000D+00 0.000D+00 0.000D+00 0.100D+01
 Coeff:     -0.117D-01 0.410D-01-0.114D+00-0.237D+00 0.132D+01
 Gap=     0.556 Goal=   None    Shift=    0.000
 RMSDP=4.44D-05 MaxDP=8.51D-04 DE=-2.57D-04 OVMax= 1.88D-03

 Cycle   6  Pass 0  IDiag  1:
 RMSU=  1.94D-05    CP:  9.95D-01  1.35D+00  1.38D+00  9.34D-01  1.27D+00
 E= -253.465303762254     Delta-E=       -0.000017180884 Rises=F Damp=F
 DIIS: error= 5.06D-05 at cycle   6 NSaved=   6.
 NSaved= 6 IEnMin= 6 EnMin= -253.465303762254     IErMin= 6 ErrMin= 5.06D-05
 ErrMax= 5.06D-05  0.00D+00 EMaxC= 1.00D-01 BMatC= 2.87D-07 BMatP= 7.18D-06
 IDIUse=1 WtCom= 1.00D+00 WtEn= 0.00D+00
 Coeff-Com:  0.290D-02-0.842D-02 0.198D-01 0.592D-01-0.425D+00 0.135D+01
 Coeff:      0.290D-02-0.842D-02 0.198D-01 0.592D-01-0.425D+00 0.135D+01
 Gap=     0.556 Goal=   None    Shift=    0.000
 RMSDP=9.20D-06 MaxDP=1.98D-04 DE=-1.72D-05 OVMax= 3.23D-04

 Initial convergence to 1.0D-05 achieved.  Increase integral accuracy.
 Cycle   7  Pass 1  IDiag  1:
 E= -253.465304423773     Delta-E=       -0.000000661519 Rises=F Damp=F
 DIIS: error= 7.59D-06 at cycle   1 NSaved=   1.
 NSaved= 1 IEnMin= 1 EnMin= -253.465304423773     IErMin= 1 ErrMin= 7.59D-06
 ErrMax= 7.59D-06  0.00D+00 EMaxC= 1.00D-01 BMatC= 8.17D-09 BMatP= 8.17D-09
 IDIUse=1 WtCom= 1.00D+00 WtEn= 0.00D+00
 Coeff-Com:  0.100D+01
 Coeff:      0.100D+01
 Gap=     0.556 Goal=   None    Shift=    0.000
 RMSDP=9.20D-06 MaxDP=1.98D-04 DE=-6.62D-07 OVMax= 4.96D-05

 Cycle   8  Pass 1  IDiag  1:
 RMSU=  1.36D-06    CP:  1.00D+00
 E= -253.465304439183     Delta-E=       -0.000000015410 Rises=F Damp=F
 DIIS: error= 2.85D-06 at cycle   2 NSaved=   2.
 NSaved= 2 IEnMin= 2 EnMin= -253.465304439183     IErMin= 2 ErrMin= 2.85D-06
 ErrMax= 2.85D-06  0.00D+00 EMaxC= 1.00D-01 BMatC= 1.33D-09 BMatP= 8.17D-09
 IDIUse=1 WtCom= 1.00D+00 WtEn= 0.00D+00
 Coeff-Com:  0.247D-01 0.975D+00
 Coeff:      0.247D-01 0.975D+00
 Gap=     0.556 Goal=   None    Shift=    0.000
 RMSDP=5.06D-07 MaxDP=1.62D-05 DE=-1.54D-08 OVMax= 1.48D-05

 Cycle   9  Pass 1  IDiag  1:
 RMSU=  3.95D-07    CP:  1.00D+00  1.23D+00
 E= -253.465304441829     Delta-E=       -0.000000002646 Rises=F Damp=F
 DIIS: error= 1.33D-06 at cycle   3 NSaved=   3.
 NSaved= 3 IEnMin= 3 EnMin= -253.465304441829     IErMin= 3 ErrMin= 1.33D-06
 ErrMax= 1.33D-06  0.00D+00 EMaxC= 1.00D-01 BMatC= 2.60D-10 BMatP= 1.33D-09
 IDIUse=1 WtCom= 1.00D+00 WtEn= 0.00D+00
 Coeff-Com: -0.201D+00-0.252D-01 0.123D+01
 Coeff:     -0.201D+00-0.252D-01 0.123D+01
 Gap=     0.556 Goal=   None    Shift=    0.000
 RMSDP=3.72D-07 MaxDP=1.35D-05 DE=-2.65D-09 OVMax= 1.16D-05

 Cycle  10  Pass 1  IDiag  1:
 RMSU=  9.19D-08    CP:  1.00D+00  1.47D+00  1.32D+00
 E= -253.465304442515     Delta-E=       -0.000000000686 Rises=F Damp=F
 DIIS: error= 2.55D-07 at cycle   4 NSaved=   4.
 NSaved= 4 IEnMin= 4 EnMin= -253.465304442515     IErMin= 4 ErrMin= 2.55D-07
 ErrMax= 2.55D-07  0.00D+00 EMaxC= 1.00D-01 BMatC= 7.22D-12 BMatP= 2.60D-10
 IDIUse=1 WtCom= 1.00D+00 WtEn= 0.00D+00
 Coeff-Com:  0.230D-01-0.216D-01-0.135D+00 0.113D+01
 Coeff:      0.230D-01-0.216D-01-0.135D+00 0.113D+01
 Gap=     0.556 Goal=   None    Shift=    0.000
 RMSDP=5.13D-08 MaxDP=1.16D-06 DE=-6.86D-10 OVMax= 1.79D-06

 Cycle  11  Pass 1  IDiag  1:
 RMSU=  1.85D-08    CP:  1.00D+00  1.49D+00  1.37D+00  1.44D+00
 E= -253.465304442529     Delta-E=       -0.000000000015 Rises=F Damp=F
 DIIS: error= 1.12D-07 at cycle   5 NSaved=   5.
 NSaved= 5 IEnMin= 5 EnMin= -253.465304442529     IErMin= 5 ErrMin= 1.12D-07
 ErrMax= 1.12D-07  0.00D+00 EMaxC= 1.00D-01 BMatC= 1.68D-12 BMatP= 7.22D-12
 IDIUse=1 WtCom= 1.00D+00 WtEn= 0.00D+00
 Coeff-Com:  0.453D-01-0.556D-02-0.273D+00 0.347D+00 0.887D+00
 Coeff:      0.453D-01-0.556D-02-0.273D+00 0.347D+00 0.887D+00
 Gap=     0.556 Goal=   None    Shift=    0.000
 RMSDP=2.37D-08 MaxDP=5.79D-07 DE=-1.48D-11 OVMax= 8.67D-07

 Cycle  12  Pass 1  IDiag  1:
 RMSU=  7.34D-09    CP:  1.00D+00  1.49D+00  1.39D+00  1.65D+00  1.09D+00
 E= -253.465304442532     Delta-E=       -0.000000000003 Rises=F Damp=F
 DIIS: error= 3.33D-08 at cycle   6 NSaved=   6.
 NSaved= 6 IEnMin= 6 EnMin= -253.465304442532     IErMin= 6 ErrMin= 3.33D-08
 ErrMax= 3.33D-08  0.00D+00 EMaxC= 1.00D-01 BMatC= 3.87D-14 BMatP= 1.68D-12
 IDIUse=1 WtCom= 1.00D+00 WtEn= 0.00D+00
 Coeff-Com: -0.173D-01 0.117D-02 0.108D+00-0.163D+00-0.350D+00 0.142D+01
 Coeff:     -0.173D-01 0.117D-02 0.108D+00-0.163D+00-0.350D+00 0.142D+01
 Gap=     0.556 Goal=   None    Shift=    0.000
 RMSDP=5.53D-09 MaxDP=1.94D-07 DE=-2.73D-12 OVMax= 2.00D-07

 SCF Done:  E(RHF) =  -253.465304443     A.U. after   12 cycles
            NFock= 12  Conv=0.55D-08     -V/T= 2.9177
 KE= 1.321720596631D+02 PE=-1.296048099598D+03 EE= 5.349115858915D+02
 Leave Link  502 at Wed May 11 22:02:19 2022, MaxMem= 67108864000 cpu:              56.5 elap:               2.0
 (Enter /cm/shared/apps/gaussian/intel/EM64T/SSE4_2-enabled/binary//g16/l801.exe)
 Range of M.O.s used for correlation:     1   129
 NBasis=   129 NAE=    33 NBE=    33 NFC=     0 NFV=     0
 NROrb=    129 NOA=    33 NOB=    33 NVA=    96 NVB=    96

 **** Warning!!: The largest alpha MO coefficient is  0.28630601D+02

 Leave Link  801 at Wed May 11 22:02:19 2022, MaxMem= 67108864000 cpu:               1.3 elap:               0.1
 (Enter /cm/shared/apps/gaussian/intel/EM64T/SSE4_2-enabled/binary//g16/l906.exe)
 FulOut=F Deriv=T AODrv=T NAtomX=    19
   MMem=           0  MDisk=          33 MDiskD=          33
  W3Min=      549153 MinDsk=     1693460 NBas6D=         129
 NBas2D=        8499    NTT=        8385    LW2=     3308096
    MDV= 67108611373 MDiskM=     7225087 NBas2p=        8440
 Disk-based method using ON**2 memory for 33 occupieds at a time.
 Permanent disk used for amplitudes=    12443904 words.
 Estimated scratch disk usage=   137137400 words.
 IMap=   1   2   3   4   5   6   7   8   9  10  11  12  13  14  15  16  17  18  19  20
 IMap=  21  22  23  24  25  26  27  28  29  30  31  32  33
 Actual    scratch disk usage=   125425400 words.
 JobTyp=1 Pass  1:  I=   1 to  33 NPSUse= 28 ParTrn=T ParDer=T DoDerP=T.
 (rs|ai) integrals will be sorted in core.
 Spin components of T(2) and E(2):
     alpha-alpha T2 =       0.3463656041D-01 E2=     -0.1123178240D+00
     alpha-beta  T2 =       0.2066509058D+00 E2=     -0.6837687785D+00
     beta-beta   T2 =       0.3463656041D-01 E2=     -0.1123178240D+00
 The integrals were generated   1 times.
 ANorm=    0.1129568071D+01
 E2 =    -0.9084044265D+00 EUMP2 =    -0.25437370886899D+03
 Leave Link  906 at Wed May 11 22:02:35 2022, MaxMem= 67108864000 cpu:             443.1 elap:              15.9
 (Enter /cm/shared/apps/gaussian/intel/EM64T/SSE4_2-enabled/binary//g16/l1101.exe)
 Using compressed Sx but separate Hx and Fx, NAtomX=    19.
 Will process     20 centers per pass.
   1 Symmetry operations used in ECPInt.
 ECPInt:  NShTT=    2346 NPrTT=    7709 LenC2=    2347 LenP2D=    6289.
 LDataN:  DoStor=T MaxTD1= 8 Len=  415
 Leave Link 1101 at Wed May 11 22:02:35 2022, MaxMem= 67108864000 cpu:              12.7 elap:               0.5
 (Enter /cm/shared/apps/gaussian/intel/EM64T/SSE4_2-enabled/binary//g16/l1102.exe)
 Leave Link 1102 at Wed May 11 22:02:35 2022, MaxMem= 67108864000 cpu:               0.6 elap:               0.0
 (Enter /cm/shared/apps/gaussian/intel/EM64T/SSE4_2-enabled/binary//g16/l1110.exe)
 Forming Gx(P) for the SCF density, NAtomX=    19.
 Integral derivatives from FoFJK, PRISM(SPDF).
 Do as many integral derivatives as possible in FoFJK.
 G2DrvN: MDV=   67108862420.
 G2DrvN: will do    20 centers at a time, making    1 passes.
 Calling FoFCou, ICntrl=  3107 FMM=F I1Cent=   0 AccDes= 0.00D+00.
 FoFJK:  IHMeth= 1 ICntrl=    3107 DoSepK=F KAlg= 0 I1Cent=           0 FoldK=F
 IRaf=         0 NMat=       1 IRICut=       1 DoRegI=T DoRafI=F ISym2E= 0 IDoP0=0 IntGTp=1.
 FoFCou: FMM=F IPFlag=           0 FMFlag=      100000 FMFlg1=           0
         NFxFlg=           0 DoJE=F BraDBF=F KetDBF=F FulRan=T
         wScrn=  0.000000 ICntrl=      3107 IOpCl=  0 I1Cent=           0 NGrid=           0
         NMat0=    1 NMatS0=      1 NMatT0=    0 NMatD0=    1 NMtDS0=    0 NMtDT0=    0
 Symmetry not used in FoFCou.
 End of G2Drv F.D. properties file   721 does not exist.
 End of G2Drv F.D. properties file   722 does not exist.
 End of G2Drv F.D. properties file   788 does not exist.
 Leave Link 1110 at Wed May 11 22:02:36 2022, MaxMem= 67108864000 cpu:              15.2 elap:               0.6
 (Enter /cm/shared/apps/gaussian/intel/EM64T/SSE4_2-enabled/binary//g16/l1002.exe)
 Minotr:  Closed shell wavefunction.
          IDoAtm=1111111111111111111
          Direct CPHF calculation.
          Differentiating once with respect to electric field.
                with respect to dipole field.
          Differentiating once with respect to nuclear coordinates.
          Requested convergence is 1.0D-08 RMS, and 1.0D-07 maximum.
          Secondary convergence is 1.0D-12 RMS, and 1.0D-12 maximum.
          NewPWx=T KeepS1=T KeepF1=T KeepIn=T MapXYZ=F SortEE=F KeepMc=T.
 Keep R1 ints in memory in canonical form, NReq=41196283.
 FoFCou: FMM=F IPFlag=           0 FMFlag=           0 FMFlg1=           0
         NFxFlg=           0 DoJE=F BraDBF=F KetDBF=F FulRan=T
         wScrn=  0.000000 ICntrl=       600 IOpCl=  0 I1Cent=           0 NGrid=           0
         NMat0=    1 NMatS0=   8385 NMatT0=    0 NMatD0=    1 NMtDS0=    0 NMtDT0=    0
 Symmetry not used in FoFCou.
 Two-electron integral symmetry not used.
          MDV=   67108864000 using IRadAn=       1.
          Solving linear equations simultaneously, MaxMat=       0.
          There are    60 degrees of freedom in the 1st order CPHF.  IDoFFX=6 NUNeed=    60.
     57 vectors produced by pass  0 Test12= 5.28D-15 1.67D-09 XBig12= 9.11D+00 9.10D-01.
 AX will form    57 AO Fock derivatives at one time.
     57 vectors produced by pass  1 Test12= 5.28D-15 1.67D-09 XBig12= 1.33D-01 9.70D-02.
     57 vectors produced by pass  2 Test12= 5.28D-15 1.67D-09 XBig12= 1.41D-03 9.07D-03.
     57 vectors produced by pass  3 Test12= 5.28D-15 1.67D-09 XBig12= 9.97D-06 5.74D-04.
     57 vectors produced by pass  4 Test12= 5.28D-15 1.67D-09 XBig12= 7.28D-08 4.82D-05.
     57 vectors produced by pass  5 Test12= 5.28D-15 1.67D-09 XBig12= 2.75D-10 3.02D-06.
     38 vectors produced by pass  6 Test12= 5.28D-15 1.67D-09 XBig12= 1.25D-12 1.98D-07.
      3 vectors produced by pass  7 Test12= 5.28D-15 1.67D-09 XBig12= 5.03D-15 1.20D-08.
 InvSVY:  IOpt=1 It=  1 EMax= 2.66D-15
 Solved reduced A of dimension   383 with    60 vectors.
 FullF1:  Do perturbations      1 to      60.
 Saving first derivative matrices.
 End of Minotr F.D. properties file   721 does not exist.
 End of Minotr F.D. properties file   722 does not exist.
 End of Minotr F.D. properties file   788 does not exist.
 Leave Link 1002 at Wed May 11 22:02:38 2022, MaxMem= 67108864000 cpu:              48.2 elap:               1.8
 (Enter /cm/shared/apps/gaussian/intel/EM64T/SSE4_2-enabled/binary//g16/l811.exe)
 MDV= 67108864000.
 Form MO integral derivatives with frozen-active canonical formalism.
 MOERI=1 MOERIx=1 NAtoms=    19 NAtomX=    19.
 Discarding MO integrals.
 MO basis two electron integral derivatives will not be stored on disk.
 IAlg= 3 DoFC=T DoPWx=T Debug=F.
 Reordered first order wavefunction length =     20072448
 In DefCFB: NBatch=  1 ICI= 33 ICA= 96 LFMax= 96
            Large arrays: LIAPS=   210874752 LIARS=   111567456 words.
 In StABat: MaxSiz= 39 MinSiz= 13 NAtomB=  4
 DoIAMN: NPSUse= 28.
 Leave Link  811 at Wed May 11 22:03:24 2022, MaxMem= 67108864000 cpu:            1298.0 elap:              46.5
 (Enter /cm/shared/apps/gaussian/intel/EM64T/SSE4_2-enabled/binary//g16/l804.exe)
 Closed-shell transformation, MDV= 67108864000 ITran=4 ISComp=1.
 Semi-Direct transformation.
 ModeAB=           2 MOrb=            33 LenV=   67108303124
 LASXX=     28702344 LTotXX=    28702344 LenRXX=    28702344
 LTotAB=    29490417 MaxLAS=    35694945 LenRXY=    35694945
 NonZer=    57404688 LenScr=    86876160 LnRSAI=           0
 LnScr1=           0 LExtra=           0 Total=    151273449
 MaxDsk=          -1 SrtSym=           F ITran=            4
 DoSDTr:  NPSUse= 28
 JobTyp=0 Pass  1:  I=   1 to  33.
 (rs|ai) integrals will be sorted in core.
 Complete sort for first half transformation.
 First half transformation complete.
 Begin second half transformation for I=  10.
 Begin second half transformation for I=  20.
 Begin second half transformation for I=  30.
 Begin second half transformation for I=  10.
 Begin second half transformation for I=  20.
 Begin second half transformation for I=  30.
 Complete sort for second half transformation.
 Second half transformation complete.
 SymMOI:  orbitals are not symmetric.
 Spin components of T(2) and E(2):
     alpha-alpha T2 =       0.3463656041D-01 E2=     -0.1123178240D+00
     alpha-beta  T2 =       0.2066509058D+00 E2=     -0.6837687785D+00
     beta-beta   T2 =       0.3463656041D-01 E2=     -0.1123178240D+00
 ANorm=    0.1597450485D+01
 E2 =    -0.9084044265D+00 EUMP2 =    -0.25437370886899D+03
 Leave Link  804 at Wed May 11 22:03:31 2022, MaxMem= 67108864000 cpu:             194.8 elap:               7.0
 (Enter /cm/shared/apps/gaussian/intel/EM64T/SSE4_2-enabled/binary//g16/l1002.exe)
 Minotr:  Closed shell wavefunction.
          Computing MP2/KS-MP2 derivatives.
          Using Z-Vector for PSCF gradient.
          Skipping F1 and S1 gradient terms here.
          IDoAtm=1111111111111111111
          Using MO integrals in the linear equations.
          Forming densities via direct SCF.
          Differentiating once with respect to electric field.
                with respect to dipole field.
          Differentiating once with respect to nuclear coordinates.
          Requested convergence is 1.0D-10 RMS, and 1.0D-09 maximum.
          NewPWx=F KeepS1=T KeepF1=T KeepIn=T MapXYZ=F SortEE=F KeepMc=T.
          MDV=   67108864000 using IRadAn=       5.
          Solving linear equations separately, MaxMat=       0.
          There are     1 degrees of freedom in the 1st order CPHF.  IDoFFX=0 NUNeed=     1.
 FoFJK:  IHMeth= 1 ICntrl=       0 DoSepK=F KAlg= 0 I1Cent=           0 FoldK=F
 IRaf=         0 NMat=       1 IRICut=       1 DoRegI=T DoRafI=F ISym2E= 0 IDoP0=0 IntGTp=1.
 FoFCou: FMM=F IPFlag=           0 FMFlag=      100000 FMFlg1=           0
         NFxFlg=           0 DoJE=F BraDBF=F KetDBF=F FulRan=T
         wScrn=  0.000000 ICntrl=         0 IOpCl=  0 I1Cent=           0 NGrid=           0
         NMat0=    1 NMatS0=      1 NMatT0=    0 NMatD0=    1 NMtDS0=    0 NMtDT0=    0
 Symmetry not used in FoFCou.
 LinEq1:  Iter=  0 NonCon=     1 RMS=6.09D-03 Max=8.66D-02 NDo=     1
 LinEq1:  Iter=  1 NonCon=     1 RMS=1.33D-03 Max=1.49D-02 NDo=     1
 LinEq1:  Iter=  2 NonCon=     1 RMS=3.70D-04 Max=4.69D-03 NDo=     1
 LinEq1:  Iter=  3 NonCon=     1 RMS=1.07D-04 Max=1.35D-03 NDo=     1
 LinEq1:  Iter=  4 NonCon=     1 RMS=2.73D-05 Max=4.10D-04 NDo=     1
 LinEq1:  Iter=  5 NonCon=     1 RMS=3.15D-06 Max=6.11D-05 NDo=     1
 LinEq1:  Iter=  6 NonCon=     1 RMS=4.21D-07 Max=6.51D-06 NDo=     1
 LinEq1:  Iter=  7 NonCon=     1 RMS=6.39D-08 Max=1.25D-06 NDo=     1
 LinEq1:  Iter=  8 NonCon=     1 RMS=1.84D-08 Max=1.56D-07 NDo=     1
 LinEq1:  Iter=  9 NonCon=     1 RMS=6.03D-09 Max=7.89D-08 NDo=     1
 LinEq1:  Iter= 10 NonCon=     1 RMS=7.24D-10 Max=7.14D-09 NDo=     1
 LinEq1:  Iter= 11 NonCon=     1 RMS=1.07D-10 Max=1.13D-09 NDo=     1
 LinEq1:  Iter= 12 NonCon=     0 RMS=2.40D-11 Max=3.31D-10 NDo=     1
 Linear equations converged to 1.000D-10 1.000D-09 after    12 iterations.
 End of Minotr F.D. properties file   721 does not exist.
 End of Minotr F.D. properties file   722 does not exist.
 End of Minotr F.D. properties file   788 does not exist.
 Leave Link 1002 at Wed May 11 22:03:34 2022, MaxMem= 67108864000 cpu:              62.0 elap:               2.3
 (Enter /cm/shared/apps/gaussian/intel/EM64T/SSE4_2-enabled/binary//g16/l1102.exe)
 Use density number 2.
 Symmetrizing basis deriv contribution to polar:
 IMax=3 JMax=2 DiffMx= 0.00D+00
 Leave Link 1102 at Wed May 11 22:03:34 2022, MaxMem= 67108864000 cpu:               0.8 elap:               0.0
 (Enter /cm/shared/apps/gaussian/intel/EM64T/SSE4_2-enabled/binary//g16/l1110.exe)
 Forming Gx(P) for generalized density number  2 NAtomX=    19.
 Integral derivatives from FoFJK, PRISM(SPDF).
 Do as many integral derivatives as possible in FoFJK.
 G2DrvN: MDV=   67108862420.
 G2DrvN: will do    20 centers at a time, making    1 passes.
 Calling FoFCou, ICntrl=  3107 FMM=F I1Cent=   0 AccDes= 0.00D+00.
 FoFJK:  IHMeth= 1 ICntrl=    3107 DoSepK=F KAlg= 0 I1Cent=           0 FoldK=F
 IRaf=         0 NMat=       1 IRICut=       1 DoRegI=T DoRafI=F ISym2E= 0 IDoP0=0 IntGTp=1.
 FoFCou: FMM=F IPFlag=           0 FMFlag=      100000 FMFlg1=           0
         NFxFlg=           0 DoJE=F BraDBF=F KetDBF=F FulRan=T
         wScrn=  0.000000 ICntrl=      3107 IOpCl=  0 I1Cent=           0 NGrid=           0
         NMat0=    1 NMatS0=      1 NMatT0=    0 NMatD0=    1 NMtDS0=    0 NMtDT0=    0
 Symmetry not used in FoFCou.
 End of G2Drv F.D. properties file   721 does not exist.
 End of G2Drv F.D. properties file   722 does not exist.
 End of G2Drv F.D. properties file   788 does not exist.
 Leave Link 1110 at Wed May 11 22:03:34 2022, MaxMem= 67108864000 cpu:              14.4 elap:               0.5
 (Enter /cm/shared/apps/gaussian/intel/EM64T/SSE4_2-enabled/binary//g16/l1112.exe)
 MP22nd: MDV=   67108864000
 This link is doing NAtomX=    19 total of    60 degrees of freedom.
 Using ON3 I/O method in MakUI.
 Using Ix for Sx.
 Using OV2 memory method for fx*t*t/D, MaxI=    33 DoOO2=F NP=  28.
 R2 and R3 integrals will be kept in memory, NReq=    71415045.
 FoFCou: FMM=F IPFlag=           0 FMFlag=           0 FMFlg1=           0
         NFxFlg=           0 DoJE=F BraDBF=F KetDBF=F FulRan=T
         wScrn=  0.000000 ICntrl=       600 IOpCl=  0 I1Cent=           0 NGrid=           0
         NMat0=    1 NMatS0=      1 NMatT0=    0 NMatD0=    1 NMtDS0=    0 NMtDT0=    0
 Symmetry not used in FoFCou.
 DD1Dir will call FoFMem   1 times, MxPair=      1122
 NAB=   561 NAA=     0 NBB=     0.
 Symmetry is being used.
 FoFJK:  IHMeth= 1 ICntrl=       0 DoSepK=F KAlg= 0 I1Cent=           0 FoldK=F
 IRaf=         0 NMat=      60 IRICut=     150 DoRegI=T DoRafI=T ISym2E= 2 IDoP0=0 IntGTp=1.
 Discarding MO integrals.
 Leave Link 1112 at Wed May 11 22:04:01 2022, MaxMem= 67108864000 cpu:             758.7 elap:              27.2
 (Enter /cm/shared/apps/gaussian/intel/EM64T/SSE4_2-enabled/binary//g16/l601.exe)
 Copying SCF densities to generalized density rwf, IOpCl= 0 IROHF=0.

 **********************************************************************

            Population analysis using the SCF density.

 **********************************************************************

 Orbital symmetries:
       Occupied  (A) (A) (A) (A) (A) (A) (A) (A) (A) (A) (A) (A)
                 (A) (A) (A) (A) (A) (A) (A) (A) (A) (A) (A) (A)
                 (A) (A) (A) (A) (A) (A) (A) (A) (A)
       Virtual   (A) (A) (A) (A) (A) (A) (A) (A) (A) (A) (A) (A)
                 (A) (A) (A) (A) (A) (A) (A) (A) (A) (A) (A) (A)
                 (A) (A) (A) (A) (A) (A) (A) (A) (A) (A) (A) (A)
                 (A) (A) (A) (A) (A) (A) (A) (A) (A) (A) (A) (A)
                 (A) (A) (A) (A) (A) (A) (A) (A) (A) (A) (A) (A)
                 (A) (A) (A) (A) (A) (A) (A) (A) (A) (A) (A) (A)
                 (A) (A) (A) (A) (A) (A) (A) (A) (A) (A) (A) (A)
                 (A) (A) (A) (A) (A) (A) (A) (A) (A) (A) (A) (A)
 The electronic state is 1-A.
 Alpha  occ. eigenvalues --   -5.38474  -3.38337  -3.38334  -3.38152  -1.68395
 Alpha  occ. eigenvalues --   -1.68182  -1.67917  -1.67892  -1.67889  -1.67848
 Alpha  occ. eigenvalues --   -1.03933  -1.03329  -1.03289  -1.03244  -1.02936
 Alpha  occ. eigenvalues --   -1.02894  -1.00917  -1.00840  -0.96466  -0.95493
 Alpha  occ. eigenvalues --   -0.95475  -0.93526  -0.92399  -0.90898  -0.90867
 Alpha  occ. eigenvalues --   -0.85552  -0.85502  -0.83739  -0.83725  -0.83355
 Alpha  occ. eigenvalues --   -0.82782  -0.80071  -0.79990
 Alpha virt. eigenvalues --   -0.24377  -0.16871  -0.16831  -0.16008  -0.15059
 Alpha virt. eigenvalues --   -0.11223  -0.11216  -0.09071  -0.07817  -0.07768
 Alpha virt. eigenvalues --   -0.04254  -0.04195  -0.03020  -0.02499  -0.02332
 Alpha virt. eigenvalues --   -0.02312  -0.01746  -0.00133   0.02654   0.02689
 Alpha virt. eigenvalues --    0.03224   0.03248   0.03563   0.03650   0.03676
 Alpha virt. eigenvalues --    0.03796   0.07576   0.08447   0.10755   0.10825
 Alpha virt. eigenvalues --    0.10909   0.10933   0.13748   0.13819   0.15289
 Alpha virt. eigenvalues --    0.17236   0.18886   0.19093   0.19147   0.21887
 Alpha virt. eigenvalues --    0.22004   0.24924   0.25149   0.25347   0.40001
 Alpha virt. eigenvalues --    0.68590   0.68604   0.74995   0.82529   0.82851
 Alpha virt. eigenvalues --    1.01817   1.04557   1.04718   1.06242   1.07319
 Alpha virt. eigenvalues --    1.07646   1.10117   1.12505   1.12667   1.12771
 Alpha virt. eigenvalues --    1.14123   1.14429   1.14454   1.14640   1.16004
 Alpha virt. eigenvalues --    1.19022   1.19494   1.19767   1.20189   1.20280
 Alpha virt. eigenvalues --    1.20477   1.28461   1.28594   1.29717   1.31017
 Alpha virt. eigenvalues --    1.31341   1.36676   1.36902   1.37026   1.37138
 Alpha virt. eigenvalues --    1.49513   1.49747   1.55470   1.57034   2.25853
 Alpha virt. eigenvalues --    2.26719   2.52805   2.55250   2.58005   2.58722
 Alpha virt. eigenvalues --    4.29185  15.52082  41.72638  41.72881  41.83635
 Alpha virt. eigenvalues --   81.50239
          Condensed to atoms (all electrons):
               1          2          3          4          5          6
     1  Hg  18.395581  -0.004869   0.044418  -0.003240  -0.004748   0.045291
     2  H   -0.004869   0.245071   0.256158  -0.014624  -0.000010   0.000188
     3  O    0.044418   0.256158   6.418386   0.252475   0.000153  -0.006280
     4  H   -0.003240  -0.014624   0.252475   0.239548   0.000000   0.000002
     5  H   -0.004748  -0.000010   0.000153   0.000000   0.244416   0.256062
     6  O    0.045291   0.000188  -0.006280   0.000002   0.256062   6.418146
     7  H   -0.003354  -0.000004   0.000108   0.000000  -0.014608   0.252250
     8  H   -0.003357  -0.000024   0.002666   0.000007  -0.000003   0.000117
     9  O    0.044219   0.000589  -0.012713   0.000351   0.000167  -0.006115
    10  H   -0.004879  -0.000001   0.000311  -0.000001  -0.000008   0.000150
    11  H   -0.003344   0.000000   0.000001   0.000000  -0.000001   0.000379
    12  O    0.044235   0.000152  -0.006185   0.000105   0.000334  -0.013726
    13  H   -0.004842  -0.000010   0.000190  -0.000003  -0.000001   0.000598
    14  H   -0.003243   0.000000   0.000002   0.000000  -0.000024   0.002728
    15  O    0.044151  -0.000004  -0.000602   0.000003   0.000607  -0.013190
    16  H   -0.004912   0.000000  -0.000004   0.000000  -0.000001   0.000323
    17  H   -0.003323  -0.000001   0.000385   0.000006   0.000000   0.000003
    18  O    0.045494   0.000324  -0.013261   0.002756  -0.000004  -0.000614
    19  H   -0.004729  -0.000001   0.000608  -0.000025   0.000000  -0.000004
               7          8          9         10         11         12
     1  Hg  -0.003354  -0.003357   0.044219  -0.004879  -0.003344   0.044235
     2  H   -0.000004  -0.000024   0.000589  -0.000001   0.000000   0.000152
     3  O    0.000108   0.002666  -0.012713   0.000311   0.000001  -0.006185
     4  H    0.000000   0.000007   0.000351  -0.000001   0.000000   0.000105
     5  H   -0.014608  -0.000003   0.000167  -0.000008  -0.000001   0.000334
     6  O    0.252250   0.000117  -0.006115   0.000150   0.000379  -0.013726
     7  H    0.239994   0.000000  -0.000001   0.000000   0.000007   0.002929
     8  H    0.000000   0.240111   0.252753  -0.014697   0.000000   0.000003
     9  O   -0.000001   0.252753   6.419243   0.256334   0.000003  -0.000598
    10  H    0.000000  -0.014697   0.256334   0.245566   0.000000  -0.000003
    11  H    0.000007   0.000000   0.000003   0.000000   0.240083   0.252734
    12  O    0.002929   0.000003  -0.000598  -0.000003   0.252734   6.419252
    13  H   -0.000026   0.000000  -0.000004   0.000000  -0.014705   0.256242
    14  H    0.000006   0.000000   0.000103  -0.000003   0.000007   0.000349
    15  O    0.000378   0.000002  -0.006211   0.000192   0.002650  -0.012669
    16  H   -0.000001   0.000000   0.000155  -0.000010  -0.000024   0.000587
    17  H    0.000000   0.000007   0.002915  -0.000026   0.000000  -0.000001
    18  O    0.000003   0.000376  -0.013700   0.000603   0.000117  -0.006135
    19  H    0.000000  -0.000001   0.000331  -0.000001  -0.000003   0.000170
              13         14         15         16         17         18
     1  Hg  -0.004842  -0.003243   0.044151  -0.004912  -0.003323   0.045494
     2  H   -0.000010   0.000000  -0.000004   0.000000  -0.000001   0.000324
     3  O    0.000190   0.000002  -0.000602  -0.000004   0.000385  -0.013261
     4  H   -0.000003   0.000000   0.000003   0.000000   0.000006   0.002756
     5  H   -0.000001  -0.000024   0.000607  -0.000001   0.000000  -0.000004
     6  O    0.000598   0.002728  -0.013190   0.000323   0.000003  -0.000614
     7  H   -0.000026   0.000006   0.000378  -0.000001   0.000000   0.000003
     8  H    0.000000   0.000000   0.000002   0.000000   0.000007   0.000376
     9  O   -0.000004   0.000103  -0.006211   0.000155   0.002915  -0.013700
    10  H    0.000000  -0.000003   0.000192  -0.000010  -0.000026   0.000603
    11  H   -0.014705   0.000007   0.002650  -0.000024   0.000000   0.000117
    12  O    0.256242   0.000349  -0.012669   0.000587  -0.000001  -0.006135
    13  H    0.245425  -0.000001   0.000311  -0.000001   0.000000   0.000146
    14  H   -0.000001   0.239329   0.252542  -0.014581   0.000000   0.000002
    15  O    0.000311   0.252542   6.419227   0.256158   0.000107  -0.006360
    16  H   -0.000001  -0.014581   0.256158   0.245072  -0.000004   0.000194
    17  H    0.000000   0.000000   0.000107  -0.000004   0.239920   0.252159
    18  O    0.000146   0.000002  -0.006360   0.000194   0.252159   6.417889
    19  H   -0.000008   0.000000   0.000152  -0.000010  -0.014658   0.255947
              19
     1  Hg  -0.004729
     2  H   -0.000001
     3  O    0.000608
     4  H   -0.000025
     5  H    0.000000
     6  O   -0.000004
     7  H    0.000000
     8  H   -0.000001
     9  O    0.000331
    10  H   -0.000001
    11  H   -0.000003
    12  O    0.000170
    13  H   -0.000008
    14  H    0.000000
    15  O    0.000152
    16  H   -0.000010
    17  H   -0.014658
    18  O    0.255947
    19  H    0.244936
 Mulliken charges:
               1
     1  Hg   1.385452
     2  H    0.517064
     3  O   -0.936815
     4  H    0.522641
     5  H    0.517667
     6  O   -0.936308
     7  H    0.522318
     8  H    0.522041
     9  O   -0.937822
    10  H    0.516475
    11  H    0.522097
    12  O   -0.937773
    13  H    0.516688
    14  H    0.522785
    15  O   -0.937443
    16  H    0.517059
    17  H    0.522513
    18  O   -0.935935
    19  H    0.517296
 Sum of Mulliken charges =   2.00000
 Mulliken charges with hydrogens summed into heavy atoms:
               1
     1  Hg   1.385452
     3  O    0.102890
     6  O    0.103677
     9  O    0.100694
    12  O    0.101011
    15  O    0.102401
    18  O    0.103874
         Mulliken charges condensed to fragments:
      1      1.385452
      2      0.614548
 APT charges:
               1
     1  Hg   1.940617
     2  H    0.355178
     3  O   -0.705558
     4  H    0.360405
     5  H    0.356054
     6  O   -0.706008
     7  H    0.360240
     8  H    0.359843
     9  O   -0.705222
    10  H    0.354609
    11  H    0.359888
    12  O   -0.705315
    13  H    0.354819
    14  H    0.360530
    15  O   -0.705668
    16  H    0.355080
    17  H    0.360274
    18  O   -0.705368
    19  H    0.355602
 Sum of APT charges =   2.00000
 APT charges with hydrogens summed into heavy atoms:
               1
     1  Hg   1.940617
     3  O    0.010025
     6  O    0.010286
     9  O    0.009231
    12  O    0.009391
    15  O    0.009942
    18  O    0.010508
         APT charges condensed to fragments:
      1      1.940617
      2      0.059383
 Electronic spatial extent (au):  <R**2>=           1185.5921
 Charge=              2.0000 electrons
 Dipole moment (field-independent basis, Debye):
    X=             -0.0120    Y=              0.0006    Z=              0.0199  Tot=              0.0233
 Quadrupole moment (field-independent basis, Debye-Ang):
   XX=            -25.2910   YY=            -18.6278   ZZ=            -19.4374
   XY=              0.4018   XZ=             -0.1551   YZ=              0.0461
 Traceless Quadrupole moment (field-independent basis, Debye-Ang):
   XX=             -4.1723   YY=              2.4909   ZZ=              1.6813
   XY=              0.4018   XZ=             -0.1551   YZ=              0.0461
 Octapole moment (field-independent basis, Debye-Ang**2):
  XXX=             -0.0827  YYY=              0.0336  ZZZ=              0.0368  XYY=             -0.0217
  XXY=             -0.0741  XXZ=             -0.0670  XZZ=             -0.1097  YZZ=              0.0418
  YYZ=              0.0704  XYZ=             -0.0048
 Hexadecapole moment (field-independent basis, Debye-Ang**3):
 XXXX=           -475.7531 YYYY=           -181.9730 ZZZZ=           -186.0904 XXXY=              4.3223
 XXXZ=             -1.5686 YYYX=            -71.1626 YYYZ=              0.3477 ZZZX=             26.3766
 ZZZY=              1.1531 XXYY=            -65.8558 XXZZ=            -61.9071 YYZZ=            -63.9355
 XXYZ=             -1.9297 YYXZ=            -27.9527 ZZXY=             70.8979
 N-N= 3.754991496003D+02 E-N=-1.296048098953D+03  KE= 1.321720596631D+02
  Exact polarizability:  55.137  -0.007  52.678  -0.005   0.050  52.559
 Approx polarizability:  32.996   0.013  34.648  -0.043   0.046  34.640
 No NMR shielding tensors so no spin-rotation constants.
 Leave Link  601 at Wed May 11 22:04:02 2022, MaxMem= 67108864000 cpu:               3.5 elap:               0.2
 (Enter /cm/shared/apps/gaussian/intel/EM64T/SSE4_2-enabled/binary//g16/l701.exe)
 ... and contract with generalized density number  2.
 Compute integral second derivatives.
   1 Symmetry operations used in ECPInt.
 ECPInt:  NShTT=    2346 NPrTT=    7709 LenC2=    2347 LenP2D=    6289.
 LDataN:  DoStor=T MaxTD1= 9 Len=  602
 Leave Link  701 at Wed May 11 22:04:03 2022, MaxMem= 67108864000 cpu:              37.3 elap:               1.4
 (Enter /cm/shared/apps/gaussian/intel/EM64T/SSE4_2-enabled/binary//g16/l702.exe)
 L702 exits ... SP integral derivatives will be done elsewhere.
 Leave Link  702 at Wed May 11 22:04:03 2022, MaxMem= 67108864000 cpu:               0.6 elap:               0.0
 (Enter /cm/shared/apps/gaussian/intel/EM64T/SSE4_2-enabled/binary//g16/l703.exe)
 Integral derivatives from FoFJK, PRISM(SPDF).
 Compute integral second derivatives, UseDBF=F ICtDFT=           0.
 Calling FoFJK, ICntrl=  10100127 FMM=F ISym2X=0 I1Cent= 0 IOpClX= 0 NMat=1 NMatS=1 NMatT=0.
 FoFJK:  IHMeth= 1 ICntrl=10100127 DoSepK=F KAlg= 0 I1Cent=           0 FoldK=F
 IRaf=         0 NMat=       1 IRICut=       1 DoRegI=T DoRafI=F ISym2E= 0 IDoP0=0 IntGTp=1.
 FoFCou: FMM=F IPFlag=           0 FMFlag=      100000 FMFlg1=         800
         NFxFlg=           0 DoJE=F BraDBF=F KetDBF=F FulRan=T
         wScrn=  0.000000 ICntrl=  10100127 IOpCl=  0 I1Cent=           0 NGrid=           0
         NMat0=    1 NMatS0=      1 NMatT0=    0 NMatD0=    1 NMtDS0=    0 NMtDT0=    0
 Symmetry not used in FoFCou.
 Leave Link  703 at Wed May 11 22:04:04 2022, MaxMem= 67108864000 cpu:              23.5 elap:               0.9
 (Enter /cm/shared/apps/gaussian/intel/EM64T/SSE4_2-enabled/binary//g16/l716.exe)
 Dipole        =-4.30056007D-03 4.04750229D-04 7.46665647D-03
 Polarizability= 5.51370202D+01-6.63441637D-03 5.26780818D+01
                -4.55816897D-03 5.02257676D-02 5.25590142D+01
 Full mass-weighted force constant matrix:
 Low frequencies --- -340.8125 -338.1803 -319.0070 -316.1090 -240.3775 -162.7315
 Low frequencies ---  -72.5916  -70.8099  -69.5440
 ******    9 imaginary frequencies (negative Signs) ****** 
 Diagonal vibrational polarizability:
      180.1204671     230.8988046     241.5779279
 Harmonic frequencies (cm**-1), IR intensities (KM/Mole), Raman scattering
 activities (A**4/AMU), depolarization ratios for plane and unpolarized
 incident light, reduced masses (AMU), force constants (mDyne/A),
 and normal coordinates:
                      1                      2                      3
                      A                      A                      A
 Frequencies --   -340.8106              -338.1490              -317.2676
 Red. masses --      1.0286                 1.0299                 1.0211
 Frc consts  --      0.0704                 0.0694                 0.0606
 IR Inten    --     61.0967                62.2739                 0.2101
  Atom  AN      X      Y      Z        X      Y      Z        X      Y      Z
     1  80    -0.00   0.00   0.00     0.00   0.00  -0.00    -0.00   0.00  -0.00
     2   1    -0.15  -0.10   0.24     0.11   0.10  -0.23    -0.07  -0.09   0.20
     3   8    -0.01  -0.00  -0.01     0.01   0.00   0.01    -0.00   0.00  -0.01
     4   1     0.19   0.16  -0.14    -0.19  -0.16   0.13     0.15   0.16  -0.09
     5   1    -0.03   0.10  -0.01    -0.19   0.40  -0.05     0.06  -0.10   0.01
     6   8    -0.00  -0.00   0.00    -0.02  -0.01   0.01     0.01  -0.00  -0.00
     7   1     0.08  -0.09  -0.04     0.28  -0.31  -0.11    -0.09   0.09   0.02
     8   1    -0.26  -0.04  -0.28    -0.05  -0.02  -0.06    -0.28  -0.03  -0.31
     9   8     0.01  -0.01  -0.00     0.01  -0.01  -0.00     0.01  -0.01   0.00
    10   1     0.18   0.20   0.29     0.06   0.05   0.06     0.17   0.22   0.32
    11   1    -0.27  -0.04  -0.29    -0.08  -0.01  -0.10     0.27   0.03   0.29
    12   8     0.01  -0.01  -0.00     0.01  -0.01  -0.00    -0.01   0.01  -0.00
    13   1     0.18   0.20   0.29     0.08   0.07   0.10    -0.16  -0.20  -0.29
    14   1     0.18   0.15  -0.14    -0.21  -0.18   0.15    -0.17  -0.17   0.11
    15   8    -0.01  -0.00  -0.01     0.01   0.00   0.01     0.00  -0.00   0.01
    16   1    -0.14  -0.10   0.24     0.13   0.11  -0.25     0.09   0.10  -0.23
    17   1     0.06  -0.06  -0.03     0.21  -0.23  -0.08     0.11  -0.12  -0.03
    18   8     0.00   0.00   0.00    -0.01  -0.01   0.01    -0.01   0.00   0.01
    19   1    -0.02   0.07  -0.01    -0.15   0.30  -0.04    -0.08   0.14  -0.02
                      4                      5                      6
                      A                      A                      A
 Frequencies --   -314.4114              -232.7454              -162.7176
 Red. masses --      1.0220                 1.0732                 1.1233
 Frc consts  --      0.0595                 0.0343                 0.0175
 IR Inten    --      0.8489                 0.0593                 3.9327
  Atom  AN      X      Y      Z        X      Y      Z        X      Y      Z
     1  80    -0.00   0.00   0.00     0.00  -0.00  -0.00     0.01  -0.00   0.00
     2   1     0.16   0.13  -0.30     0.18   0.09  -0.21    -0.18  -0.12   0.26
     3   8     0.02   0.01   0.00     0.01   0.01   0.02    -0.01  -0.03   0.01
     4   1    -0.25  -0.20   0.17    -0.16  -0.08   0.14     0.17   0.09  -0.10
     5   1     0.10  -0.30   0.03    -0.20   0.28  -0.03    -0.16   0.29  -0.03
     6   8     0.01   0.00  -0.00    -0.01  -0.01   0.02    -0.01   0.03   0.02
     7   1    -0.20   0.23   0.11     0.18  -0.20  -0.02     0.16  -0.14  -0.04
     8   1    -0.06   0.01  -0.09    -0.16  -0.07  -0.14     0.17   0.04   0.14
     9   8    -0.00  -0.00  -0.01     0.01  -0.02   0.00    -0.01   0.00  -0.03
    10   1     0.03   0.06   0.09     0.19   0.13   0.19    -0.18  -0.16  -0.24
    11   1     0.02  -0.02   0.05     0.18   0.08   0.16     0.17   0.03   0.14
    12   8     0.00   0.00   0.01    -0.01   0.02  -0.00    -0.01  -0.00  -0.03
    13   1     0.00  -0.03  -0.04    -0.20  -0.15  -0.21    -0.16  -0.16  -0.23
    14   1     0.21   0.17  -0.14     0.18   0.10  -0.15     0.16   0.10  -0.10
    15   8    -0.01  -0.01  -0.00    -0.01  -0.01  -0.02    -0.01  -0.03   0.02
    16   1    -0.14  -0.11   0.25    -0.20  -0.10   0.23    -0.17  -0.12   0.26
    17   1     0.26  -0.28  -0.13    -0.19   0.20   0.02     0.18  -0.16  -0.05
    18   8    -0.01  -0.01   0.00     0.01   0.01  -0.02    -0.01   0.03   0.02
    19   1    -0.13   0.37  -0.04     0.20  -0.28   0.03    -0.18   0.32  -0.03
                      7                      8                      9
                      A                      A                      A
 Frequencies --    -70.7047               -64.6344               -63.5391
 Red. masses --      2.9994                 3.1228                 3.1489
 Frc consts  --      0.0088                 0.0077                 0.0075
 IR Inten    --      8.2926                23.0415                23.4041
  Atom  AN      X      Y      Z        X      Y      Z        X      Y      Z
     1  80     0.04   0.00  -0.01     0.01  -0.03   0.02    -0.00  -0.02  -0.04
     2   1    -0.19   0.02  -0.16    -0.10   0.01  -0.11     0.29  -0.04   0.25
     3   8    -0.07  -0.04  -0.09    -0.05  -0.03  -0.04     0.11   0.06   0.15
     4   1    -0.03  -0.18  -0.17    -0.05  -0.13  -0.07     0.06   0.27   0.26
     5   1    -0.26  -0.21   0.09     0.26   0.19  -0.09    -0.08  -0.04   0.02
     6   8    -0.10  -0.07   0.12     0.10   0.07  -0.11    -0.02  -0.04   0.03
     7   1    -0.04  -0.06   0.34     0.06   0.05  -0.32     0.01  -0.05   0.09
     8   1    -0.02   0.22  -0.07    -0.03   0.30  -0.07    -0.06   0.24  -0.10
     9   8    -0.06   0.09   0.01    -0.08   0.14   0.02    -0.08   0.10  -0.00
    10   1    -0.17   0.12   0.10    -0.24   0.16   0.12    -0.20   0.14   0.10
    11   1    -0.03   0.22  -0.08    -0.02   0.31  -0.06    -0.06   0.24  -0.10
    12   8    -0.07   0.09  -0.00    -0.08   0.14   0.03    -0.08   0.11  -0.00
    13   1    -0.17   0.12   0.09    -0.24   0.16   0.13    -0.20   0.14   0.11
    14   1    -0.03  -0.18  -0.16    -0.05  -0.12  -0.06     0.06   0.26   0.25
    15   8    -0.07  -0.04  -0.09    -0.05  -0.04  -0.03     0.10   0.06   0.15
    16   1    -0.18   0.03  -0.16    -0.10   0.01  -0.09     0.28  -0.04   0.24
    17   1    -0.04  -0.06   0.31     0.06   0.05  -0.29     0.02  -0.06   0.08
    18   8    -0.09  -0.07   0.11     0.09   0.07  -0.11    -0.02  -0.04   0.03
    19   1    -0.24  -0.19   0.08     0.23   0.18  -0.08    -0.08  -0.04   0.02
                     10                     11                     12
                      A                      A                      A
 Frequencies --      9.0537                16.3206                31.9151
 Red. masses --      3.6480                 3.6438                 3.0561
 Frc consts  --      0.0002                 0.0006                 0.0018
 IR Inten    --      0.0160                 0.0064                 0.0176
  Atom  AN      X      Y      Z        X      Y      Z        X      Y      Z
     1  80    -0.00  -0.00   0.00    -0.00  -0.00   0.00     0.00   0.00  -0.00
     2   1    -0.05  -0.08   0.14    -0.19   0.05  -0.17    -0.21   0.01  -0.19
     3   8    -0.09  -0.07   0.14    -0.03  -0.01  -0.14    -0.13  -0.10  -0.03
     4   1    -0.09  -0.03   0.15     0.03  -0.15  -0.23    -0.13  -0.29  -0.09
     5   1    -0.23  -0.10   0.06    -0.10  -0.25   0.04     0.14   0.09  -0.07
     6   8    -0.09  -0.01   0.08     0.04  -0.18   0.06     0.12  -0.08  -0.07
     7   1    -0.04  -0.01   0.25     0.06  -0.16   0.22     0.13  -0.13  -0.20
     8   1     0.07   0.33   0.01     0.10  -0.12   0.16    -0.11   0.18  -0.17
     9   8     0.01   0.16   0.11     0.13  -0.01   0.11    -0.10   0.06  -0.05
    10   1    -0.17   0.17   0.20     0.21  -0.04   0.02    -0.14   0.14   0.10
    11   1    -0.07  -0.33  -0.02    -0.10   0.11  -0.16     0.11  -0.17   0.18
    12   8    -0.01  -0.16  -0.11    -0.13   0.01  -0.11     0.09  -0.06   0.06
    13   1     0.17  -0.16  -0.19    -0.20   0.04  -0.03     0.14  -0.14  -0.10
    14   1     0.09   0.03  -0.14    -0.03   0.16   0.24     0.13   0.30   0.09
    15   8     0.09   0.07  -0.14     0.03   0.01   0.14     0.13   0.10   0.03
    16   1     0.05   0.08  -0.14     0.20  -0.06   0.18     0.22  -0.01   0.19
    17   1     0.04   0.02  -0.28    -0.06   0.16  -0.25    -0.14   0.12   0.22
    18   8     0.11   0.01  -0.09    -0.03   0.18  -0.07    -0.12   0.07   0.08
    19   1     0.26   0.11  -0.07     0.11   0.27  -0.05    -0.15  -0.11   0.08
                     13                     14                     15
                      A                      A                      A
 Frequencies --     81.0153                81.2970                91.4661
 Red. masses --      5.8629                 5.8519                 4.0563
 Frc consts  --      0.0227                 0.0228                 0.0200
 IR Inten    --      0.6981                 0.6333                 1.7401
  Atom  AN      X      Y      Z        X      Y      Z        X      Y      Z
     1  80     0.00   0.06  -0.02    -0.00  -0.02  -0.06     0.03  -0.00  -0.00
     2   1    -0.18  -0.15   0.19    -0.08  -0.09   0.08     0.02  -0.01  -0.06
     3   8    -0.17  -0.15   0.17    -0.07  -0.08   0.06    -0.06  -0.09   0.13
     4   1    -0.23  -0.15   0.23    -0.07  -0.08   0.06    -0.18  -0.22   0.20
     5   1     0.16  -0.22  -0.05    -0.11   0.16   0.01     0.01  -0.03   0.04
     6   8     0.13  -0.18  -0.06    -0.11   0.13   0.01    -0.06   0.18   0.01
     7   1     0.15  -0.20  -0.03    -0.14   0.16  -0.02    -0.19   0.32   0.08
     8   1     0.04   0.03   0.00     0.23   0.11   0.26    -0.19  -0.07  -0.29
     9   8     0.02   0.02   0.00     0.18   0.07   0.24    -0.06  -0.07  -0.14
    10   1     0.02   0.02   0.01     0.20   0.08   0.26     0.03   0.05   0.03
    11   1     0.04   0.03   0.00     0.23   0.11   0.26    -0.19  -0.08  -0.28
    12   8     0.02   0.02   0.00     0.18   0.07   0.24    -0.05  -0.07  -0.14
    13   1     0.02   0.02   0.01     0.20   0.08   0.26     0.03   0.04   0.02
    14   1    -0.23  -0.15   0.22    -0.07  -0.07   0.06    -0.18  -0.21   0.20
    15   8    -0.17  -0.15   0.17    -0.06  -0.08   0.06    -0.05  -0.09   0.13
    16   1    -0.18  -0.15   0.19    -0.08  -0.09   0.08     0.03  -0.01  -0.06
    17   1     0.15  -0.20  -0.03    -0.14   0.16  -0.02    -0.21   0.33   0.09
    18   8     0.13  -0.18  -0.06    -0.11   0.13   0.01    -0.07   0.18   0.01
    19   1     0.16  -0.22  -0.05    -0.11   0.16   0.01     0.01  -0.05   0.04
                     16                     17                     18
                      A                      A                      A
 Frequencies --    191.1911               191.9447               252.8308
 Red. masses --      5.7085                 5.7253                 6.9592
 Frc consts  --      0.1229                 0.1243                 0.2621
 IR Inten    --      0.0002                 0.0001                11.3763
  Atom  AN      X      Y      Z        X      Y      Z        X      Y      Z
     1  80    -0.00  -0.00   0.00     0.00   0.00  -0.00    -0.00  -0.03   0.05
     2   1    -0.06   0.14   0.01     0.23  -0.25   0.04    -0.01   0.10   0.00
     3   8    -0.09   0.14   0.03     0.18  -0.21  -0.02    -0.08   0.09   0.05
     4   1    -0.11   0.14   0.05     0.18  -0.14  -0.00    -0.02   0.12   0.00
     5   1     0.17   0.11   0.10     0.18   0.13   0.21    -0.14  -0.14  -0.10
     6   8     0.11   0.05   0.09     0.17   0.08   0.21    -0.14  -0.07  -0.10
     7   1     0.10   0.04   0.02     0.19   0.05   0.18    -0.15  -0.04  -0.06
     8   1     0.22   0.12  -0.16     0.00   0.06  -0.03     0.19   0.12  -0.21
     9   8     0.21   0.15  -0.20    -0.01   0.02  -0.01     0.24   0.17  -0.20
    10   1     0.23   0.12  -0.26    -0.05   0.02   0.02     0.18   0.11  -0.27
    11   1    -0.22  -0.12   0.15    -0.01  -0.06   0.03     0.20   0.12  -0.21
    12   8    -0.21  -0.15   0.20     0.01  -0.02   0.01     0.25   0.17  -0.20
    13   1    -0.23  -0.12   0.26     0.05  -0.03  -0.02     0.19   0.11  -0.28
    14   1     0.11  -0.14  -0.05    -0.18   0.14   0.00    -0.02   0.12   0.00
    15   8     0.09  -0.14  -0.03    -0.18   0.21   0.02    -0.08   0.09   0.05
    16   1     0.06  -0.14  -0.01    -0.23   0.26  -0.04    -0.02   0.10   0.00
    17   1    -0.10  -0.04  -0.02    -0.19  -0.05  -0.18    -0.15  -0.04  -0.06
    18   8    -0.11  -0.05  -0.09    -0.17  -0.08  -0.21    -0.13  -0.07  -0.10
    19   1    -0.17  -0.11  -0.10    -0.17  -0.14  -0.21    -0.14  -0.14  -0.10
                     19                     20                     21
                      A                      A                      A
 Frequencies --    256.2951               284.4356               306.0910
 Red. masses --      7.0379                 6.6697                 6.0690
 Frc consts  --      0.2724                 0.3179                 0.3350
 IR Inten    --     11.6071                12.1532                 0.0003
  Atom  AN      X      Y      Z        X      Y      Z        X      Y      Z
     1  80     0.00  -0.05  -0.03     0.07  -0.00   0.00    -0.00  -0.00   0.00
     2   1    -0.18   0.27  -0.06    -0.16   0.19   0.08    -0.12   0.15   0.07
     3   8    -0.22   0.23   0.02    -0.12   0.19   0.06    -0.16   0.17   0.05
     4   1    -0.20   0.19  -0.00    -0.09   0.20   0.03    -0.14   0.22   0.04
     5   1     0.12   0.14   0.18    -0.18  -0.03  -0.21     0.12   0.01   0.16
     6   8     0.19   0.05   0.20    -0.14  -0.05  -0.20     0.16   0.04   0.17
     7   1     0.12   0.10   0.18    -0.10  -0.08  -0.18     0.14   0.07   0.22
     8   1     0.07  -0.02   0.02    -0.08  -0.10   0.13    -0.14  -0.14   0.16
     9   8     0.03  -0.02  -0.03    -0.11  -0.13   0.12    -0.16  -0.12   0.12
    10   1     0.06  -0.02  -0.04    -0.16  -0.15   0.10    -0.12  -0.13   0.08
    11   1     0.07  -0.02   0.02    -0.08  -0.10   0.13     0.14   0.14  -0.16
    12   8     0.03  -0.02  -0.03    -0.11  -0.13   0.12     0.16   0.12  -0.12
    13   1     0.06  -0.02  -0.04    -0.16  -0.15   0.10     0.12   0.13  -0.09
    14   1    -0.20   0.20  -0.00    -0.09   0.19   0.03     0.14  -0.22  -0.04
    15   8    -0.22   0.23   0.02    -0.12   0.19   0.05     0.16  -0.17  -0.05
    16   1    -0.18   0.27  -0.06    -0.16   0.19   0.08     0.12  -0.15  -0.07
    17   1     0.13   0.10   0.18    -0.11  -0.08  -0.19    -0.14  -0.07  -0.22
    18   8     0.19   0.05   0.20    -0.14  -0.05  -0.20    -0.16  -0.04  -0.17
    19   1     0.12   0.14   0.18    -0.18  -0.03  -0.21    -0.12  -0.01  -0.16
                     22                     23                     24
                      A                      A                      A
 Frequencies --    403.4293               407.5386               429.3035
 Red. masses --      1.1976                 1.1958                 1.2470
 Frc consts  --      0.1148                 0.1170                 0.1354
 IR Inten    --      0.0317                 0.3316                72.1504
  Atom  AN      X      Y      Z        X      Y      Z        X      Y      Z
     1  80     0.00  -0.00  -0.00     0.00   0.00  -0.00     0.00  -0.01  -0.00
     2   1    -0.31   0.09   0.04     0.23  -0.13   0.04    -0.06   0.05  -0.04
     3   8     0.03   0.00   0.03    -0.03  -0.02  -0.03     0.00  -0.00   0.02
     4   1     0.02  -0.24  -0.03    -0.15   0.20   0.15     0.10  -0.08  -0.09
     5   1     0.02   0.05   0.02     0.41   0.05   0.13    -0.24  -0.02  -0.09
     6   8    -0.01   0.00   0.01    -0.04  -0.03   0.04     0.03   0.00  -0.03
     7   1    -0.10   0.06  -0.06    -0.11  -0.07  -0.34     0.03   0.06   0.17
     8   1    -0.16  -0.30   0.19     0.04  -0.05   0.13    -0.18  -0.32   0.22
     9   8    -0.04   0.05   0.00    -0.01   0.01   0.01    -0.04   0.06   0.01
    10   1     0.38   0.06  -0.16     0.17   0.05  -0.00     0.39   0.05  -0.20
    11   1     0.16   0.29  -0.18    -0.03   0.05  -0.13    -0.16  -0.30   0.20
    12   8     0.04  -0.05  -0.00     0.01  -0.01  -0.02    -0.04   0.06   0.01
    13   1    -0.36  -0.05   0.16    -0.17  -0.04   0.01     0.36   0.05  -0.17
    14   1    -0.01   0.23   0.03     0.15  -0.21  -0.15     0.13  -0.14  -0.12
    15   8    -0.02  -0.00  -0.03     0.03   0.02   0.03     0.01   0.00   0.03
    16   1     0.30  -0.08  -0.04    -0.24   0.14  -0.04    -0.11   0.09  -0.06
    17   1     0.09  -0.06   0.05     0.09   0.06   0.29     0.00   0.07   0.14
    18   8     0.01  -0.01  -0.01     0.03   0.03  -0.03     0.03   0.00  -0.02
    19   1    -0.02  -0.05  -0.02    -0.36  -0.04  -0.11    -0.23   0.01  -0.08
                     25                     26                     27
                      A                      A                      A
 Frequencies --    433.9111               436.3047               459.7107
 Red. masses --      1.2464                 1.2493                 1.2779
 Frc consts  --      0.1383                 0.1401                 0.1591
 IR Inten    --     59.6883                14.4326                62.2288
  Atom  AN      X      Y      Z        X      Y      Z        X      Y      Z
     1  80     0.00  -0.00   0.01     0.00  -0.00   0.00    -0.01  -0.00   0.00
     2   1     0.41  -0.22   0.06    -0.00   0.07  -0.09    -0.20   0.16  -0.09
     3   8    -0.05  -0.03  -0.06     0.00   0.01   0.02     0.03   0.02   0.04
     4   1    -0.17   0.38   0.18     0.09  -0.06  -0.09     0.15  -0.24  -0.15
     5   1    -0.30  -0.18  -0.11     0.06   0.12   0.04    -0.22  -0.14  -0.09
     6   8     0.04   0.04  -0.05    -0.01  -0.00   0.03     0.03   0.02  -0.04
     7   1     0.23  -0.03   0.37    -0.10   0.03  -0.13     0.14   0.00   0.27
     8   1    -0.12  -0.11  -0.01     0.09   0.14  -0.06     0.13   0.21  -0.11
     9   8     0.00   0.02   0.01     0.02  -0.03   0.01     0.03  -0.04   0.00
    10   1    -0.02  -0.05  -0.10    -0.11   0.01   0.13    -0.17   0.01   0.16
    11   1     0.02   0.09  -0.09    -0.19  -0.23   0.06     0.12   0.20  -0.11
    12   8     0.02  -0.02   0.01    -0.02   0.04   0.00     0.03  -0.04   0.00
    13   1    -0.16  -0.03   0.07     0.11  -0.04  -0.19    -0.17   0.00   0.15
    14   1    -0.02   0.17   0.03    -0.18   0.33   0.19     0.14  -0.23  -0.14
    15   8    -0.03  -0.01  -0.02    -0.04  -0.03  -0.05     0.03   0.02   0.04
    16   1     0.23  -0.07  -0.04     0.32  -0.22   0.10    -0.20   0.15  -0.09
    17   1     0.08   0.01   0.15     0.24  -0.03   0.39     0.16   0.00   0.32
    18   8     0.01   0.02  -0.01     0.04   0.03  -0.06     0.04   0.02  -0.04
    19   1    -0.16  -0.03  -0.05    -0.31  -0.21  -0.12    -0.26  -0.16  -0.10
                     28                     29                     30
                      A                      A                      A
 Frequencies --    598.6071               602.1170               604.5989
 Red. masses --      1.1384                 1.1530                 1.1529
 Frc consts  --      0.2403                 0.2463                 0.2483
 IR Inten    --   1454.8540                36.2927                33.2991
  Atom  AN      X      Y      Z        X      Y      Z        X      Y      Z
     1  80     0.00   0.00  -0.00     0.00   0.00   0.00     0.00   0.00   0.00
     2   1     0.25   0.04  -0.19    -0.19  -0.08   0.24     0.15  -0.02  -0.05
     3   8    -0.03  -0.01   0.03     0.03   0.01  -0.04    -0.01  -0.01   0.01
     4   1     0.28   0.07  -0.23    -0.28   0.01   0.24     0.04   0.07  -0.02
     5   1     0.28  -0.19   0.07    -0.16   0.13  -0.04    -0.14   0.24  -0.03
     6   8    -0.04   0.03  -0.01     0.02  -0.02   0.00     0.02  -0.04   0.01
     7   1     0.28  -0.25   0.03    -0.12   0.10  -0.02    -0.27   0.19  -0.15
     8   1     0.22   0.10   0.17     0.21   0.18   0.06    -0.23  -0.15  -0.12
     9   8    -0.03  -0.01  -0.02    -0.02  -0.02  -0.01     0.03   0.02   0.03
    10   1     0.23   0.12   0.09     0.07   0.09   0.14    -0.22  -0.15  -0.16
    11   1     0.21   0.10   0.15    -0.14  -0.13  -0.01     0.31   0.19   0.16
    12   8    -0.03  -0.01  -0.01     0.01   0.01   0.01    -0.04  -0.03  -0.03
    13   1     0.19   0.10   0.08    -0.00  -0.05  -0.10     0.28   0.19   0.21
    14   1     0.19   0.10  -0.14     0.37   0.02  -0.31     0.06  -0.04  -0.06
    15   8    -0.03  -0.01   0.02    -0.04  -0.01   0.05     0.00   0.00   0.00
    16   1     0.21   0.00  -0.12     0.28   0.09  -0.30    -0.04   0.03  -0.02
    17   1     0.15  -0.14  -0.01     0.15  -0.14   0.01     0.28  -0.21   0.14
    18   8    -0.02   0.01  -0.00    -0.02   0.03  -0.00    -0.03   0.03  -0.01
    19   1     0.17  -0.08   0.04     0.21  -0.15   0.06     0.16  -0.24   0.04
                     31                     32                     33
                      A                      A                      A
 Frequencies --    621.5074               622.1682               633.7943
 Red. masses --      1.1419                 1.1420                 1.1339
 Frc consts  --      0.2599                 0.2605                 0.2684
 IR Inten    --    627.5960               610.5147                 6.0658
  Atom  AN      X      Y      Z        X      Y      Z        X      Y      Z
     1  80     0.00   0.00  -0.00     0.00   0.00   0.00    -0.00  -0.00  -0.00
     2   1     0.28   0.06  -0.25     0.02  -0.06   0.07     0.23  -0.01  -0.12
     3   8    -0.03  -0.02   0.03     0.00  -0.01  -0.02    -0.03  -0.01   0.02
     4   1     0.31   0.06  -0.25    -0.08   0.07   0.08     0.21   0.12  -0.16
     5   1    -0.14   0.20  -0.03    -0.24   0.15  -0.07    -0.22   0.09  -0.06
     6   8     0.02  -0.03   0.01     0.02  -0.02  -0.01     0.03  -0.02  -0.00
     7   1    -0.23   0.17  -0.11    -0.20   0.19  -0.00    -0.18   0.18   0.03
     8   1    -0.05   0.01  -0.09     0.35   0.22   0.18     0.20   0.06   0.19
     9   8     0.01  -0.01   0.01    -0.03  -0.03  -0.03    -0.03  -0.01  -0.02
    10   1    -0.12  -0.05  -0.00     0.28   0.19   0.21     0.23   0.10   0.05
    11   1    -0.09  -0.00  -0.12     0.29   0.19   0.13    -0.23  -0.09  -0.19
    12   8     0.02  -0.01   0.01    -0.03  -0.02  -0.03     0.03   0.01   0.02
    13   1    -0.18  -0.07  -0.02     0.22   0.16   0.19    -0.26  -0.12  -0.08
    14   1     0.27   0.05  -0.21    -0.13   0.05   0.12    -0.21  -0.13   0.15
    15   8    -0.03  -0.02   0.03     0.01  -0.00  -0.02     0.03   0.01  -0.02
    16   1     0.25   0.05  -0.22    -0.02  -0.06   0.10    -0.25   0.01   0.12
    17   1    -0.26   0.19  -0.13    -0.20   0.17  -0.02     0.25  -0.24  -0.02
    18   8     0.02  -0.04   0.01     0.02  -0.02  -0.01    -0.03   0.03   0.00
    19   1    -0.15   0.23  -0.04    -0.22   0.16  -0.07     0.28  -0.14   0.08
                     34                     35                     36
                      A                      A                      A
 Frequencies --   1714.4777              1715.4861              1716.3247
 Red. masses --      1.0890                 1.0890                 1.0904
 Frc consts  --      1.8860                 1.8882                 1.8926
 IR Inten    --    326.5167               329.0324                 6.0207
  Atom  AN      X      Y      Z        X      Y      Z        X      Y      Z
     1  80    -0.00  -0.00   0.00     0.00   0.00   0.00     0.00  -0.00   0.00
     2   1    -0.14   0.12  -0.13    -0.23   0.19  -0.21    -0.12   0.10  -0.11
     3   8     0.01  -0.02   0.00     0.02  -0.03   0.01     0.01  -0.02   0.00
     4   1     0.00   0.22   0.06    -0.00   0.34   0.10     0.00   0.18   0.05
     5   1     0.31   0.36   0.07    -0.07  -0.08  -0.01    -0.26  -0.31  -0.06
     6   8    -0.02  -0.03  -0.03     0.00   0.01   0.01     0.02   0.03   0.03
     7   1     0.01   0.13   0.45     0.00  -0.03  -0.10    -0.01  -0.11  -0.39
     8   1    -0.01  -0.08   0.07     0.01   0.27  -0.26    -0.00  -0.10   0.10
     9   8     0.01   0.00  -0.01    -0.02  -0.01   0.03     0.01   0.00  -0.01
    10   1    -0.07   0.02   0.08     0.23  -0.09  -0.28    -0.09   0.04   0.11
    11   1    -0.01  -0.09   0.08     0.01   0.26  -0.25     0.00   0.03  -0.03
    12   8     0.01   0.00  -0.01    -0.02  -0.01   0.03    -0.00  -0.00   0.00
    13   1    -0.08   0.03   0.09     0.22  -0.09  -0.27     0.02  -0.01  -0.04
    14   1     0.00   0.23   0.06    -0.00   0.28   0.08    -0.00  -0.16  -0.05
    15   8     0.01  -0.02   0.00     0.01  -0.03   0.00    -0.01   0.02  -0.00
    16   1    -0.15   0.13  -0.14    -0.19   0.16  -0.17     0.11  -0.09   0.10
    17   1     0.01   0.10   0.35     0.00  -0.02  -0.05     0.01   0.13   0.47
    18   8    -0.02  -0.02  -0.03     0.00   0.00   0.00    -0.02  -0.03  -0.04
    19   1     0.24   0.28   0.05    -0.03  -0.04  -0.00     0.32   0.38   0.07
[...]
 01457035,0.00343590,-0.00040779,0.00459986,-0.05436425,0.00112921,-0.0
 1285252,-0.05280827,-0.01145300,-0.06333149,0.10423872,0.00853893,0.07
 326253,-0.00205779,-0.00381334,-0.00229372,-0.00096698,0.00032894,0.00
 009116,0.00081834,0.00029886,0.00064360,-0.00010213,-0.00002521,-0.000
 17407,0.18649899,0.00021521,0.00259484,-0.00076515,0.00053011,0.000291
 17,-0.00009554,-0.00008858,-0.00098859,-0.00019712,0.00004033,0.000022
 81,-0.00002662,0.23542535,0.32277736,-0.00093688,-0.00285399,0.0024281
 4,0.00026184,-0.00020284,0.00019653,-0.00014380,0.00032849,-0.00037692
 ,0.00003004,-0.00001652,0.00009126,0.04534998,0.03554398,0.05738667,-0
 .02213655,0.00218817,-0.00630898,0.00017045,-0.00085773,-0.00028836,-0
 .00318711,0.00322089,-0.00024850,0.00037320,0.00042021,0.00076410,-0.1
 8477951,-0.21561018,-0.07272485,0.24615921,-0.00125590,-0.01054281,0.0
 0083544,-0.00119637,0.00016064,0.00017952,0.00188993,0.00043328,0.0005
 3585,-0.00014064,-0.00038592,-0.00035693,-0.22504160,-0.30599103,-0.07
 372473,0.26250039,0.45730999,-0.01415351,0.00379569,-0.01700066,-0.001
 14522,0.00070410,-0.00038409,-0.00078960,0.00095885,0.00149453,-0.0000
 6574,0.00022297,0.00006280,-0.03588402,-0.02201770,-0.06165147,0.04202
 060,-0.14610199,0.45435787,0.00064535,0.00382393,-0.00762735,-0.000324
 85,0.00070483,-0.00012114,-0.00014073,-0.00038454,0.00064301,-0.000180
 71,0.00017929,-0.00007266,0.00046258,-0.02034810,0.02821648,-0.0347112
 5,-0.03226223,0.01023171,0.03257382,0.00186409,0.00370821,0.00186519,0
 .00071469,-0.00035968,0.00008941,-0.00075414,0.00006260,-0.00049511,0.
 00012653,0.00012848,0.00013036,-0.00689490,-0.01894785,0.04147209,-0.0
 4389139,-0.14040257,0.16398890,0.04821501,0.15845801,-0.00119077,0.002
 12793,-0.00260212,0.00001791,-0.00002518,0.00020205,0.00024354,-0.0002
 6224,-0.00013116,0.00001404,-0.00002760,-0.00000734,-0.00836215,-0.012
 57055,0.00310075,0.04126317,0.21766333,-0.37504322,-0.03329932,-0.2065
 2407,0.37545206,0.00418211,-0.00111644,-0.00139725,0.00053214,0.000064
 21,0.00002228,-0.00125220,0.00211692,-0.00186259,-0.00060004,-0.000763
 86,0.00127447,-0.00013170,0.00040372,-0.00055525,-0.00030074,-0.000533
 62,0.00044226,0.00016005,0.00008051,-0.00006863,0.04782653,-0.00065486
 ,-0.00515195,-0.00001753,0.00022164,0.00038883,-0.00018892,0.00060775,
 -0.00058433,-0.00082288,-0.00004074,0.00030266,-0.00008784,0.00028400,
 -0.00011265,0.00035305,-0.00018767,0.00047847,-0.00035191,-0.00005822,
 -0.00008359,0.00005317,-0.05918718,0.43357813,-0.00058876,0.00633355,0
 .00296983,0.00041711,0.00038750,-0.00043033,-0.00146690,-0.00268914,0.
 00046125,0.00029466,0.00027126,0.00039781,-0.00051611,0.00048823,-0.00
 022999,0.00003177,-0.00060874,-0.00039757,-0.00012399,0.00017146,-0.00
 013218,-0.04788380,0.15560557,0.08334616,-0.01032799,-0.00430874,0.006
 14954,-0.00121143,0.00012019,0.00026198,-0.00025487,0.00030999,0.00398
 512,0.00023628,0.00021662,-0.00067857,0.00015232,-0.00053534,0.0014019
 1,0.00139496,0.00085974,-0.00087247,-0.00032754,-0.00016613,0.00004358
 ,-0.04276417,0.07012159,0.04513880,0.38675855,-0.00015948,-0.02204782,
 0.01131974,-0.00020720,-0.00023894,0.00005884,-0.00090069,0.00328364,-
 0.00009467,-0.00011882,-0.00045575,0.00065639,0.00007391,-0.00069120,0
 .00033956,0.00159501,-0.00026397,0.00234380,0.00054163,0.00019843,0.00
 000896,0.01665752,-0.42561329,-0.12762301,-0.03666760,0.50406661,0.000
 94099,0.00543204,-0.01577694,0.00071542,-0.00015478,0.00007933,0.00364
 244,-0.00130120,-0.00297278,-0.00011519,-0.00026960,-0.00139385,0.0009
 2332,-0.00035043,0.00046207,-0.00204758,0.00236510,-0.00226724,-0.0005
 6640,-0.00060063,0.00013770,0.02917507,-0.15753290,-0.08008737,-0.2677
 1094,0.13602210,0.26371433,0.00095596,-0.00040315,0.00030625,0.0000596
 3,-0.00007608,-0.00002913,0.00034942,-0.00001379,-0.00027771,0.0000640
 6,-0.00004278,0.00002180,0.00023549,0.00005161,-0.00047690,-0.00079071
 ,0.00001506,0.00002418,0.00001809,0.00000626,-0.00003662,-0.00649192,-
 0.01092873,0.00481671,-0.33309356,0.02220603,0.23129923,0.33939980,-0.
 00359477,0.00296143,0.00220464,-0.00020019,0.00018558,-0.00001408,-0.0
 0029963,0.00044467,0.00074346,-0.00000521,0.00005288,0.00003124,-0.000
 12135,0.00021105,0.00026308,0.00064218,-0.00033705,-0.00016624,-0.0000
 1252,0.00004974,0.00003066,0.04314199,-0.00312987,-0.03223481,-0.02850
 851,-0.05404408,0.01337673,-0.01064483,0.05490480,0.00374934,0.0019164
 7,-0.00090315,0.00029387,0.00001508,-0.00007149,0.00000457,-0.00020090
 ,-0.00051706,0.00010415,0.00002979,-0.00003003,-0.00024533,0.00036829,
 -0.00089887,-0.00047948,-0.00077636,0.00056593,0.00009808,0.00019147,-
 0.00003328,0.02142184,0.00313904,-0.00599210,0.21182753,-0.02078909,-0
 .16536851,-0.23603274,0.01682201,0.17270858,0.00417776,-0.00111057,-0.
 00140812,0.00010809,0.00012611,0.00005589,0.00000814,-0.00059245,-0.00
 001602,-0.00001219,0.00012602,-0.00002641,-0.00005806,-0.00001971,-0.0
 0001844,-0.00139578,0.00089535,-0.00002869,0.00023674,-0.00149652,-0.0
 0049166,0.00010272,0.00001040,-0.00005703,-0.00020978,0.00017518,-0.00
 001899,0.00005847,-0.00009362,0.00003888,0.04690003,-0.00068301,-0.005
 18431,-0.00003571,-0.00002881,-0.00008551,0.00000629,0.00015717,0.0001
 5543,0.00003748,-0.00002279,-0.00023892,-0.00001713,-0.00009039,0.0000
 7938,0.00002869,-0.00002370,0.00012203,0.00010127,-0.00022496,-0.00026
 207,-0.00019993,0.00001032,-0.00003595,-0.00000963,0.00007150,0.000212
 70,-0.00014135,-0.00002199,-0.00001864,0.00004818,-0.05722803,0.433529
 95,-0.00057565,0.00633153,0.00299497,-0.00002307,-0.00011548,-0.000008
 19,-0.00026241,0.00084641,-0.00012111,0.00008457,-0.00000495,0.0001914
 3,-0.00003665,-0.00003506,0.00005559,0.00061209,0.00019618,-0.00037223
 ,-0.00042588,-0.00060259,0.00015686,-0.00005706,-0.00000956,0.00014633
 ,-0.00002557,-0.00046693,0.00000730,0.00002089,0.00009853,0.00003964,-
 0.04753044,0.15773472,0.08506229,-0.01028734,-0.00438265,0.00617356,-0
 .00049968,-0.00038943,-0.00012625,0.00117459,0.00096956,-0.00023872,-0
 .00000544,-0.00085054,0.00012760,-0.00058019,0.00049683,-0.00023984,-0
 .00281929,-0.00413230,0.00021977,0.00176502,0.00202965,0.00113170,-0.0
 0020929,0.00007001,-0.00002422,0.00074046,0.00011532,-0.00023105,-0.00
 012905,0.00024764,-0.00015607,-0.04204249,0.06817065,0.04490242,0.3832
 6504,-0.00017935,-0.02222694,0.01141041,0.00036388,0.00049811,0.000395
 67,0.00114966,-0.00430282,-0.00040722,-0.00051997,0.00024669,-0.000517
 79,-0.00021092,0.00052106,-0.00024457,-0.00464184,0.00010048,-0.000839
 81,0.00052977,-0.00217085,-0.00009291,0.00017605,0.00021155,-0.0004679
 2,0.00011725,0.00059427,0.00015113,-0.00001309,0.00008048,-0.00022779,
 0.01492326,-0.42557676,-0.12956061,-0.03467571,0.50433404,0.00094619,0
 .00554771,-0.01582207,-0.00032820,0.00104311,-0.00052595,-0.00044872,0
 .00095445,0.00194878,0.00004590,-0.00003505,-0.00044777,0.00048207,-0.
 00015368,0.00038867,0.00153305,0.00036826,0.00261437,0.00268627,0.0011
 2908,-0.00104362,-0.00002106,-0.00014013,0.00000785,-0.00022840,0.0001
 5022,0.00040489,0.00004219,-0.00031651,0.00009682,0.02864185,-0.159640
 27,-0.08157559,-0.26754421,0.13811258,0.26719292,0.00096501,-0.0003926
 0,0.00029871,0.00027102,-0.00014800,0.00010110,-0.00051725,0.00009932,
 -0.00004596,0.00017761,0.00033135,-0.00006568,-0.00009055,-0.00001536,
 0.00008224,-0.00001362,-0.00025703,-0.00029227,-0.00048123,-0.00009955
 ,0.00050563,0.00005880,-0.00002134,0.00002029,-0.00012935,-0.00001210,
 0.00004286,0.00000925,-0.00004767,0.00003742,-0.00628477,-0.01092085,0
 .00468359,-0.33037562,0.02200395,0.23165611,0.33647378,-0.00358814,0.0
 0295619,0.00223006,-0.00027693,-0.00110107,0.00006521,0.00094736,0.000
 95174,-0.00126164,0.00016998,-0.00082143,0.00050253,-0.00033687,0.0001
 6510,-0.00011082,-0.00082330,-0.00111657,-0.00035018,-0.00019285,0.000
 43317,0.00033718,-0.00009270,-0.00001887,0.00009864,0.00024680,0.00008
 053,-0.00031736,-0.00004740,0.00013079,-0.00001198,0.04291085,-0.00309
 320,-0.03243607,-0.02845630,-0.05413489,0.01328135,-0.01046248,0.05496
 444,0.00373615,0.00192751,-0.00091240,0.00014304,-0.00018245,0.0003478
 8,-0.00022987,-0.00064452,-0.00045465,-0.00001250,0.00044681,0.0001542
 0,-0.00008008,-0.00009498,0.00009292,-0.00024801,-0.00014632,-0.000304
 33,-0.00023702,0.00009630,0.00056087,0.00003931,0.00004817,0.00003862,
 -0.00015618,-0.00022614,0.00009699,0.00003750,-0.00001173,0.00000380,0
 .02161094,0.00312935,-0.00623063,0.21187002,-0.02105247,-0.16726342,-0
 .23624969,0.01707414,0.17484629,-0.00215471,0.00166810,0.00083233,0.00
 003236,0.00004957,0.00002675,-0.00000405,-0.00011813,-0.00007929,-0.00
 002022,0.00004765,0.00001498,0.00039149,-0.00036285,-0.00051293,-0.001
 56619,-0.00019769,-0.00011570,0.00036785,0.00004343,0.00002915,-0.0000
 1244,-0.00002406,0.00008428,-0.00000521,-0.00051824,0.00004198,0.00017
 912,0.00017000,-0.00001062,-0.00059849,-0.00003902,0.00029855,0.000233
 91,-0.00012143,-0.00012110,0.00006478,-0.00000574,0.00010422,0.4779494
 2,0.00768325,-0.00045434,-0.00048913,0.00007584,0.00001319,-0.00003465
 ,-0.00040959,0.00018671,0.00013188,0.00004736,0.00009557,0.00006119,0.
 00012458,-0.00021030,-0.00050380,-0.00153509,0.00017690,0.00191762,0.0
 0019896,0.00074376,0.00014606,0.00012532,-0.00023646,-0.00000523,-0.00
 085574,0.00024501,-0.00002673,0.00033202,-0.00083297,0.00044692,-0.000
 76361,0.00030314,0.00027066,0.00021827,-0.00045671,-0.00026907,-0.0000
 4294,0.00005441,0.00003012,-0.03672562,0.01475257,0.00345181,-0.000413
 64,0.00457545,0.00009699,-0.00008223,0.00003540,-0.00027748,0.00020148
 ,-0.00016599,0.00001427,0.00006174,0.00014537,-0.00005828,-0.00025280,
 0.00033788,-0.00186276,0.00302773,-0.00002740,0.00041788,-0.00109043,-
 0.00101951,-0.00002642,-0.00001707,0.00018988,0.00012409,-0.00051641,-
 0.00044618,-0.00006378,0.00050148,0.00015815,0.00127157,-0.00009303,0.
 00039498,-0.00067668,0.00066194,-0.00138985,0.00002085,0.00003266,-0.0
 0003179,0.10294846,0.00821423,0.07260172,-0.01609065,0.01208953,0.0031
 9006,-0.00008510,-0.00016587,-0.00005117,0.00072061,-0.00000611,-0.000
 03305,-0.00000228,-0.00041163,-0.00027847,-0.00020219,0.00017254,0.000
 06338,0.00217036,-0.00159643,-0.00078144,-0.00046189,0.00019934,0.0001
 6222,0.00000813,0.00015701,-0.00026037,0.00118791,0.00113605,-0.000456
 29,-0.00051769,0.00096180,-0.00023457,-0.00124520,0.00061573,-0.001475
 96,-0.00024245,-0.00090436,0.00363237,0.00034915,-0.00029903,0.0000018
 4,-0.46513683,0.04426347,-0.05153721,0.54242028,0.00538816,-0.02006228
 ,-0.00378108,-0.00017964,0.00020957,0.00003686,-0.00000792,0.00027477,
 0.00014361,-0.00011951,0.00018742,0.00020059,0.00005324,0.00024219,-0.
 00033243,-0.00246880,0.00054759,-0.00375598,-0.00061341,-0.00148541,-0
 .00053592,-0.00059882,0.00015208,0.00084427,0.00098118,-0.00429867,0.0
 0094230,0.00010301,0.00096742,-0.00063942,0.00212448,-0.00057848,-0.00
 269122,0.00029403,0.00328563,-0.00129008,-0.00001222,0.00044237,-0.000
 19667,0.03246872,-0.02119763,-0.01132611,-0.04304708,0.08965626,0.0032
 2306,-0.00961627,-0.01347320,-0.00023940,0.00033574,-0.00006721,-0.000
 03856,0.00014791,0.00089488,-0.00007873,0.00013297,-0.00016652,-0.0001
 0970,0.00028476,-0.00141091,-0.00246268,-0.00357689,-0.00279709,-0.000
 19907,0.00022035,0.00032907,-0.00001555,0.00003665,-0.00011742,-0.0002
 5156,-0.00040566,0.00197080,-0.00004984,-0.00127316,-0.00045788,-0.001
 85876,-0.00081891,0.00045746,0.00396545,-0.00008704,-0.00298767,-0.000
 27503,0.00074674,-0.00050587,-0.11319651,-0.00439185,-0.06280892,0.138
 24942,0.14012827,0.52400805,0.00363593,-0.00028366,0.00227197,0.000101
 53,-0.00005831,0.00002401,-0.00008468,-0.00018246,-0.00024059,0.000031
 96,0.00007690,0.00009811,0.00014158,-0.00012705,0.00005563,0.00049927,
 0.00022440,0.00037205,0.00005692,0.00000815,-0.00003446,0.00010933,-0.
 00002859,-0.00002308,-0.00050206,0.00036743,-0.00032968,0.00026986,-0.
 00028274,0.00014161,0.00053224,0.00021675,0.00042187,-0.00120612,-0.00
 020832,0.00071527,0.00005827,-0.00020119,0.00029096,-0.00980961,-0.013
 31312,-0.05436316,-0.06036445,0.00250355,-0.02771879,0.06765969,0.0003
 3646,-0.00010748,-0.00521666,-0.00005875,0.00006102,-0.00004390,-0.000
 16523,0.00020920,0.00033614,0.00004997,0.00001277,-0.00008327,-0.00006
 847,0.00007814,-0.00035704,-0.00061962,-0.00053669,-0.00045258,-0.0000
 0628,0.00000720,-0.00011974,0.00012862,-0.00008400,-0.00011404,-0.0003
 9389,0.00050165,0.00105703,-0.00015359,-0.00110638,-0.00018862,0.00006
 070,0.00038696,0.00039259,0.00012116,-0.00023909,-0.00015591,-0.000076
 09,0.00018490,0.00001556,0.00363956,0.00705056,0.00134513,-0.01421865,
 -0.04785049,-0.12170975,0.01123915,0.04133789,0.00060870,-0.00076066,-
 0.00052281,0.00002318,-0.00004301,-0.00001598,-0.00005078,0.00003741,-
 0.00006530,0.00002688,-0.00003493,0.00003534,0.00007364,-0.00000724,-0
 .00003473,-0.00005114,0.00000444,0.00034125,0.00003120,-0.00005546,0.0
 0001543,0.00005534,0.00000706,-0.00000739,-0.00012681,0.00039094,-0.00
 052361,0.00010136,0.00006319,0.00034788,0.00002324,-0.00018695,-0.0004
 3771,0.00026509,0.00006284,0.00007510,-0.00002862,-0.00001211,-0.00007
 151,0.00967791,-0.00567800,-0.01269834,-0.08950841,-0.11877238,-0.4438
 7034,0.07919065,0.12480980,0.45741134,0.00067223,0.00377703,-0.0076144
 0,0.00005749,-0.00000766,0.00003195,-0.00045736,-0.00061909,-0.0002034
 0,0.00036567,0.00019754,0.00041696,-0.00000845,0.00002085,-0.00010941,
 0.00019935,-0.00018030,0.00047336,0.00015275,0.00006959,-0.00001540,0.
 00023216,-0.00022776,-0.00042670,0.00175586,0.00053244,0.00268226,-0.0
 0047461,-0.00019078,-0.00023659,0.00016030,-0.00005885,-0.00012455,-0.
 00032772,0.00054695,-0.00056828,0.00001819,-0.00001182,0.00009767,-0.0
 0018161,0.00017935,-0.00007288,-0.00013544,-0.00038872,0.00065533,-0.0
 0033155,0.00071649,-0.00012151,0.03273467,0.00187426,0.00370519,0.0018
 5196,0.00000900,0.00000610,-0.00005416,0.00019492,-0.00149247,0.000216
 71,0.00004236,0.00075304,-0.00109151,-0.00003227,0.00008886,-0.0000469
 8,-0.00002331,-0.00024856,0.00001744,0.00007017,0.00008195,0.00004339,
 -0.00149782,-0.00026937,-0.00060803,0.00202783,-0.00215938,0.00114007,
 -0.00009846,0.00043145,0.00009647,0.00008018,-0.00008433,0.00017220,-0
 .00016488,0.00020001,-0.00059875,0.00000580,0.00004968,0.00018985,0.00
 012814,0.00012863,0.00012920,-0.00076099,0.00005900,-0.00049712,0.0007
 2515,-0.00036330,0.00008769,0.04807003,0.15550742,-0.00118347,0.002080
 60,-0.00262509,-0.00003345,-0.00012090,0.00001695,0.00015364,-0.000529
 40,0.00032145,0.00002884,0.00014923,-0.00100964,-0.00007302,0.00001272
 ,0.00000151,0.00016099,-0.00006381,0.00006823,-0.00001554,0.00004269,-
 0.00001199,-0.00048640,-0.00020108,0.00015781,0.00112788,-0.00008391,-
 0.00103722,0.00049984,0.00033615,0.00055782,-0.00007059,0.00005580,-0.
 00013490,0.00004702,0.00000701,0.00014522,-0.00003696,0.00003023,-0.00
 003614,0.00001370,-0.00002963,-0.00000875,0.00025134,-0.00026198,-0.00
 012906,0.00001466,-0.00002392,0.00020461,-0.03390469,-0.20416723,0.376
 91059,-0.02210400,0.00219721,-0.00632125,0.00050013,-0.00062007,-0.000
 04726,0.00217832,-0.00248789,-0.00245968,-0.00157410,-0.00154120,-0.00
 186713,0.00026417,-0.00018607,0.00023613,0.00046772,0.00029812,0.00009
 578,0.00019880,-0.00002156,0.00016195,-0.00139312,-0.00002288,0.000605
 34,-0.00281599,-0.00461346,0.00153435,-0.00001241,-0.00082455,-0.00024
 324,-0.00030423,-0.00018904,0.00003357,0.00139114,0.00159405,-0.002053
 13,-0.00078954,0.00064169,-0.00047186,0.00037409,0.00042214,0.00076745
 ,-0.00320341,0.00322008,-0.00024396,0.00017721,-0.00086216,-0.00028789
 ,-0.03487744,-0.04364706,0.04180380,0.24505477,-0.00134061,-0.01050549
 ,0.00078055,0.00021878,-0.00053758,0.00000504,-0.00159185,0.00053940,-
 0.00359587,-0.00020378,0.00017739,0.00304098,0.00010867,-0.00018785,0.
 00012817,0.00030272,0.00068322,0.00005227,-0.00018235,-0.00024798,-0.0
 0006608,0.00090520,0.00012991,0.00019418,-0.00413056,0.00011623,0.0003
 5798,-0.00025561,-0.00111507,-0.00014398,-0.00053425,0.00048284,-0.000
 61039,0.00085286,-0.00027667,0.00236456,0.00001727,-0.00033755,-0.0007
 6768,-0.00014387,-0.00038439,-0.00035730,0.00190697,0.00043317,0.00053
 848,-0.00120621,0.00016450,0.00018688,-0.03235055,-0.13760345,0.215247
 24,0.26184375,0.45498682,-0.01412403,0.00379839,-0.01702972,0.00036873
 ,-0.00045552,0.00034936,-0.00076339,-0.00380210,-0.00281083,-0.0001235
 6,0.00193077,-0.00004760,0.00024890,-0.00006712,-0.00001021,0.00009749
 ,0.00005104,0.00075001,0.00047412,0.00001774,0.00006814,-0.00003951,0.
 00009823,-0.00037559,0.00023765,-0.00084124,0.00261397,-0.00028507,-0.
 00034289,-0.00030006,0.00044416,-0.00035779,-0.00039609,-0.00087435,0.
 00236118,-0.00228431,0.00002280,-0.00016187,0.00056730,-0.00006655,0.0
 0022658,0.00006673,-0.00078831,0.00095576,0.00150859,-0.00115271,0.000
 71346,-0.00038009,0.01077681,0.16151919,-0.37632119,0.03998942,-0.1449
 2120,0.45534156,-0.00209000,-0.00385136,-0.00231073,0.00014267,-0.0000
 6923,0.00007421,-0.00020575,0.00005610,-0.00011188,0.00039456,0.000126
 18,-0.00005713,0.00001260,-0.00006332,0.00002068,0.00026623,0.00011112
 ,0.00024892,-0.00000979,-0.00003307,-0.00007389,-0.00005637,-0.0000903
 7,-0.00003798,-0.00058439,-0.00020291,0.00047820,-0.00008921,-0.000337
 24,-0.00007864,-0.00013348,0.00028934,-0.00052031,0.00015452,0.0000701
 7,0.00093184,0.00023606,-0.00012194,-0.00024643,-0.00010365,-0.0000248
 5,-0.00017472,0.00083114,0.00029967,0.00064488,-0.00097532,0.00033061,
 0.00009797,0.00044553,-0.00700306,-0.00829760,-0.18353210,-0.22421661,
 -0.03444260,0.18529676,0.00023387,0.00257582,-0.00074909,-0.00012681,0
 .00007579,-0.00000735,0.00017256,0.00024099,0.00027441,-0.00036856,-0.
 00021426,-0.00024956,-0.00006225,0.00005753,-0.00006340,-0.00018694,-0
 .00018745,-0.00006653,0.00002186,0.00008846,0.00001354,-0.00001994,0.0
 0007868,-0.00003412,0.00049384,0.00051401,-0.00014950,-0.00001450,0.00
 016376,-0.00009556,0.00040625,-0.00011427,0.00049004,-0.00053417,-0.00
 068758,-0.00035187,0.00005054,0.00021025,0.00036515,0.00004148,0.00002
 232,-0.00002658,-0.00009230,-0.00098455,-0.00019520,0.00053016,0.00029
 263,-0.00009951,-0.02007474,-0.01879047,-0.01247981,-0.21520112,-0.306
 51747,-0.02072262,0.23473076,0.32317581,-0.00097640,-0.00287373,0.0024
 3118,0.00005507,-0.00035839,-0.00003485,0.00006399,-0.00033609,-0.0014
 1574,-0.00051600,-0.00050460,0.00034615,0.00002049,-0.00006400,0.00007
 111,0.00023907,0.00012887,-0.00000970,-0.00011038,-0.00004676,0.000001
 48,-0.00001704,0.00002888,0.00005442,-0.00024758,-0.00024350,0.0003863
 1,0.00008184,-0.00011177,0.00009380,-0.00056141,0.00035892,-0.00023039
 ,0.00140875,0.00033536,0.00046565,-0.00047740,0.00026330,-0.00089813,0
 .00003042,-0.00001717,0.00009117,-0.00014539,0.00033159,-0.00037674,0.
 00026569,-0.00020427,0.00019685,0.02826344,0.04159962,0.00292979,-0.07
 123238,-0.07243383,-0.06130998,0.04385520,0.03414757,0.05720760\\-0.00
 015047,-0.00013275,0.00012261,-0.00874649,-0.00554794,-0.00645913,0.00
 130443,0.01111876,-0.00403763,0.00657558,-0.00210073,0.01050406,-0.008
 21792,-0.00620245,0.00654366,0.00906812,-0.00740375,-0.00250923,0.0023
 1349,0.01209804,-0.00336342,0.00998653,-0.00640441,-0.00374791,-0.0068
 3387,0.00269178,-0.00902576,-0.00401882,0.00598277,0.00987070,-0.01001
 606,0.00669615,0.00387580,0.00718284,-0.00293216,0.00873490,0.00372938
 ,-0.00596076,-0.00978213,-0.00661757,0.00206715,-0.01046310,-0.0011684
 7,-0.01095175,0.00412178,0.00870067,0.00542514,0.00630009,-0.00227516,
 -0.01189115,0.00303066,-0.00891110,0.00759985,0.00283713,0.00809486,0.
 00584823,-0.00655308\\\@


 THE WORLD OF CHEMICAL REACTIONS IS LIKE A STAGE,
 ON WHICH SCENE AFTER SCENE IS CEASELESSLY PLAYED.
 THE ACTORS ON IT ARE THE ELEMENTS.
   -- CLEMENS WINKLER   BER. 30,13(1897)
 (DISCOVERER OF GERMANIUM, FEB 6, 1886)
 Job cpu time:       0 days  0 hours 49 minutes 58.7 seconds.
 Elapsed time:       0 days  0 hours  1 minutes 48.1 seconds.
 File lengths (MBytes):  RWF=   2793 Int=      0 D2E=      0 Chk=      3 Scr=      1
 Normal termination of Gaussian 16 at Wed May 11 22:04:04 2022.
