 Entering Gaussian System, Link 0=g16
 Initial command:
 /cm/shared/apps/gaussian/intel/EM64T/SSE4_2-enabled/binary//g16/l1.exe "/scratch/florez/25750/Gau-32722.inp" -scrdir="/scratch/florez/25750/"
 Entering Link 1 = /cm/shared/apps/gaussian/intel/EM64T/SSE4_2-enabled/binary//g16/l1.exe PID=     32725.
  
 Copyright (c) 1988,1990,1992,1993,1995,1998,2003,2009,2016,
            Gaussian, Inc.  All Rights Reserved.
  
 This is part of the Gaussian(R) 16 program.  It is based on
 the Gaussian(R) 09 system (copyright 2009, Gaussian, Inc.),
 the Gaussian(R) 03 system (copyright 2003, Gaussian, Inc.),
 the Gaussian(R) 98 system (copyright 1998, Gaussian, Inc.),
 the Gaussian(R) 94 system (copyright 1995, Gaussian, Inc.),
 the Gaussian 92(TM) system (copyright 1992, Gaussian, Inc.),
 the Gaussian 90(TM) system (copyright 1990, Gaussian, Inc.),
 the Gaussian 88(TM) system (copyright 1988, Gaussian, Inc.),
 the Gaussian 86(TM) system (copyright 1986, Carnegie Mellon
 University), and the Gaussian 82(TM) system (copyright 1983,
 Carnegie Mellon University). Gaussian is a federally registered
 trademark of Gaussian, Inc.
  
 This software contains proprietary and confidential information,
 including trade secrets, belonging to Gaussian, Inc.
  
 This software is provided under written license and may be
 used, copied, transmitted, or stored only in accord with that
 written license.
  
 The following legend is applicable only to US Government
 contracts under FAR:
  
                    RESTRICTED RIGHTS LEGEND
  
 Use, reproduction and disclosure by the US Government is
 subject to restrictions as set forth in subparagraphs (a)
 and (c) of the Commercial Computer Software - Restricted
 Rights clause in FAR 52.227-19.
  
 Gaussian, Inc.
 340 Quinnipiac St., Bldg. 40, Wallingford CT 06492
  
  
 ---------------------------------------------------------------
 Warning -- This program may not be used in any manner that
 competes with the business of Gaussian, Inc. or will provide
 assistance to any competitor of Gaussian, Inc.  The licensee
 of this program is prohibited from giving any competitor of
 Gaussian, Inc. access to this program.  By using this program,
 the user acknowledges that Gaussian, Inc. is engaged in the
 business of creating and licensing software in the field of
 computational chemistry and represents and warrants to the
 licensee that it is not a competitor of Gaussian, Inc. and that
 it will not use this program in any manner prohibited above.
 ---------------------------------------------------------------
  

 Cite this work as:
 Gaussian 16, Revision A.03,
 M. J. Frisch, G. W. Trucks, H. B. Schlegel, G. E. Scuseria, 
 M. A. Robb, J. R. Cheeseman, G. Scalmani, V. Barone, 
 G. A. Petersson, H. Nakatsuji, X. Li, M. Caricato, A. V. Marenich, 
 J. Bloino, B. G. Janesko, R. Gomperts, B. Mennucci, H. P. Hratchian, 
 J. V. Ortiz, A. F. Izmaylov, J. L. Sonnenberg, D. Williams-Young, 
 F. Ding, F. Lipparini, F. Egidi, J. Goings, B. Peng, A. Petrone, 
 T. Henderson, D. Ranasinghe, V. G. Zakrzewski, J. Gao, N. Rega, 
 G. Zheng, W. Liang, M. Hada, M. Ehara, K. Toyota, R. Fukuda, 
 J. Hasegawa, M. Ishida, T. Nakajima, Y. Honda, O. Kitao, H. Nakai, 
 T. Vreven, K. Throssell, J. A. Montgomery, Jr., J. E. Peralta, 
 F. Ogliaro, M. J. Bearpark, J. J. Heyd, E. N. Brothers, K. N. Kudin, 
 V. N. Staroverov, T. A. Keith, R. Kobayashi, J. Normand, 
 K. Raghavachari, A. P. Rendell, J. C. Burant, S. S. Iyengar, 
 J. Tomasi, M. Cossi, J. M. Millam, M. Klene, C. Adamo, R. Cammi, 
 J. W. Ochterski, R. L. Martin, K. Morokuma, O. Farkas, 
 J. B. Foresman, and D. J. Fox, Gaussian, Inc., Wallingford CT, 2016.
 
 ******************************************
 Gaussian 16:  ES64L-G16RevA.03 25-Dec-2016
                11-May-2022 
 ******************************************
 %chk=w6s15.chk
 %nproc=28
 Will use up to   28 processors via shared memory.
 %mem=500gb
 ------------------------
 #p MP2(full) SDDAll freq
 ------------------------
 1/10=4,30=1,38=1/1,3;
 2/12=2,17=6,18=5,40=1/2;
 3/5=17,6=6,11=9,25=1,30=1,71=2,140=1/1,2,3;
 4//1;
 5/5=2,38=5,98=1/2;
 8/6=3,8=1,10=90,19=11/1;
 9/15=3,16=-3/6;
 11/6=1,8=1,15=11,17=11,24=-1,27=1,28=-2,29=300,32=6,42=3/1,2,10;
 10/6=2,21=1/2;
 8/6=4,8=1,10=90,19=11/11,4;
 10/5=1,20=4/2;
 11/12=2,14=11,16=1,28=-2,42=3/2,10,12;
 6/7=2,8=2,9=2,10=2/1;
 7/8=1,10=1,12=2,25=1,44=2/1,2,3,16;
 1/10=4,30=1/3;
 99//99;
 Leave Link    1 at Wed May 11 22:04:05 2022, MaxMem= 67108864000 cpu:               2.1 elap:               0.1
 (Enter /cm/shared/apps/gaussian/intel/EM64T/SSE4_2-enabled/binary//g16/l101.exe)
 ----------------------------------------------------------------------
 file 'w6s15.log' Now we use Def2-QZVPPD, but it was opt at: ---'ZORA-S
 R+SO PBE QZ4P'---
 ----------------------------------------------------------------------
 Symbolic Z-matrix:
 Charge =  2 Multiplicity = 1
 Hg(Fragment=1)       -0.08471   0.19041  -0.18903 
 O(Fragment=2)         3.55762   1.56898   0.44147 
 H(Fragment=2)         4.36077   1.03859   0.59668 
 H(Fragment=2)         3.85299   2.46999   0.21366 
 O(Fragment=2)        -3.36752   2.10309   0.17331 
 H(Fragment=2)        -3.97973   2.30119  -0.55637 
 H(Fragment=2)        -3.79455   2.43345   0.98315 
 O(Fragment=2)         1.03746  -1.0297    1.74016 
 H(Fragment=2)         1.40966  -1.92537   1.66536 
 H(Fragment=2)         0.75836  -0.94522   2.66852 
 O(Fragment=2)         1.82478   0.46619  -0.89727 
 H(Fragment=2)         1.86509   0.73452  -1.83403 
 H(Fragment=2)         2.60554   0.99771  -0.30806 
 O(Fragment=2)        -2.01988  -0.00961   0.37934 
 H(Fragment=2)        -2.62327   0.84365   0.24564 
 H(Fragment=2)        -2.49692  -0.89626   0.06894 
 O(Fragment=2)        -3.06787  -2.1986   -0.28442 
 H(Fragment=2)        -3.62837  -2.31969  -1.07059 
 H(Fragment=2)        -3.46999  -2.73587   0.42023 
 
 ITRead=  0  0  0  0  0  0  0  0  0  0  0  0  0  0  0  0  0  0  0
 MicOpt= -1 -1 -1 -1 -1 -1 -1 -1 -1 -1 -1 -1 -1 -1 -1 -1 -1 -1 -1
 NAtoms=     19 NQM=       19 NQMF=       0 NMMI=      0 NMMIF=      0
                NMic=       0 NMicF=      0.
                    Isotopes and Nuclear Properties:
 (Nuclear quadrupole moments (NQMom) in fm**2, nuclear magnetic moments (NMagM)
  in nuclear magnetons)

  Atom         1           2           3           4           5           6           7           8           9          10
 IAtWgt=         202          16           1           1          16           1           1          16           1           1
 AtmWgt= 201.9706000  15.9949146   1.0078250   1.0078250  15.9949146   1.0078250   1.0078250  15.9949146   1.0078250   1.0078250
 NucSpn=           0           0           1           1           0           1           1           0           1           1
 AtZEff=  -0.0000000  -0.0000000  -0.0000000  -0.0000000  -0.0000000  -0.0000000  -0.0000000  -0.0000000  -0.0000000  -0.0000000
 NQMom=    0.0000000   0.0000000   0.0000000   0.0000000   0.0000000   0.0000000   0.0000000   0.0000000   0.0000000   0.0000000
 NMagM=    0.0000000   0.0000000   2.7928460   2.7928460   0.0000000   2.7928460   2.7928460   0.0000000   2.7928460   2.7928460
 AtZNuc=  80.0000000   8.0000000   1.0000000   1.0000000   8.0000000   1.0000000   1.0000000   8.0000000   1.0000000   1.0000000

  Atom        11          12          13          14          15          16          17          18          19
 IAtWgt=          16           1           1          16           1           1          16           1           1
 AtmWgt=  15.9949146   1.0078250   1.0078250  15.9949146   1.0078250   1.0078250  15.9949146   1.0078250   1.0078250
 NucSpn=           0           1           1           0           1           1           0           1           1
 AtZEff=  -0.0000000  -0.0000000  -0.0000000  -0.0000000  -0.0000000  -0.0000000  -0.0000000  -0.0000000  -0.0000000
 NQMom=    0.0000000   0.0000000   0.0000000   0.0000000   0.0000000   0.0000000   0.0000000   0.0000000   0.0000000
 NMagM=    0.0000000   2.7928460   2.7928460   0.0000000   2.7928460   2.7928460   0.0000000   2.7928460   2.7928460
 AtZNuc=   8.0000000   1.0000000   1.0000000   8.0000000   1.0000000   1.0000000   8.0000000   1.0000000   1.0000000
 Leave Link  101 at Wed May 11 22:04:05 2022, MaxMem= 67108864000 cpu:               2.4 elap:               0.1
 (Enter /cm/shared/apps/gaussian/intel/EM64T/SSE4_2-enabled/binary//g16/l103.exe)

 GradGradGradGradGradGradGradGradGradGradGradGradGradGradGradGradGradGrad
 Berny optimization.
 Initialization pass.
 Trust Radius=3.00D-01 FncErr=1.00D-07 GrdErr=1.00D-07 EigMax=2.50D+02 EigMin=1.00D-04
 Number of steps in this run=      2 maximum allowed number of steps=      2.
 GradGradGradGradGradGradGradGradGradGradGradGradGradGradGradGradGradGrad

 Leave Link  103 at Wed May 11 22:04:05 2022, MaxMem= 67108864000 cpu:               0.6 elap:               0.0
 (Enter /cm/shared/apps/gaussian/intel/EM64T/SSE4_2-enabled/binary//g16/l202.exe)
                          Input orientation:                          
 ---------------------------------------------------------------------
 Center     Atomic      Atomic             Coordinates (Angstroms)
 Number     Number       Type             X           Y           Z
 ---------------------------------------------------------------------
      1         80           0       -0.084708    0.190407   -0.189031
      2          8           0        3.557617    1.568980    0.441467
      3          1           0        4.360768    1.038593    0.596684
      4          1           0        3.852994    2.469989    0.213660
      5          8           0       -3.367517    2.103085    0.173309
      6          1           0       -3.979730    2.301194   -0.556371
      7          1           0       -3.794545    2.433445    0.983151
      8          8           0        1.037456   -1.029702    1.740155
      9          1           0        1.409659   -1.925373    1.665361
     10          1           0        0.758363   -0.945220    2.668519
     11          8           0        1.824779    0.466194   -0.897272
     12          1           0        1.865092    0.734521   -1.834029
     13          1           0        2.605538    0.997705   -0.308057
     14          8           0       -2.019883   -0.009605    0.379344
     15          1           0       -2.623267    0.843646    0.245636
     16          1           0       -2.496920   -0.896261    0.068939
     17          8           0       -3.067871   -2.198596   -0.284423
     18          1           0       -3.628365   -2.319692   -1.070595
     19          1           0       -3.469992   -2.735867    0.420232
 ---------------------------------------------------------------------
                    Distance matrix (angstroms):
                    1          2          3          4          5
     1  Hg   0.000000
     2  O    3.945190   0.000000
     3  H    4.593367   0.974912   0.000000
     4  H    4.567729   0.975172   1.566345   0.000000
     5  O    3.816604   6.950875   7.812732   7.229940   0.000000
     6  H    4.445397   7.638286   8.513965   7.872293   0.972875
     7  H    4.490893   7.422601   8.282759   7.686241   0.973311
     8  O    2.543556   3.845900   4.077962   4.743973   5.627890
     9  H    3.185660   4.280437   4.316968   5.234169   6.424648
    10  H    3.188418   4.372275   4.604925   5.221755   5.704483
    11  O    2.055190   2.451752   2.998464   3.059905   5.548468
    12  H    2.608409   2.956154   3.497031   3.340155   5.769105
    13  H    2.811285   1.339625   1.975110   1.998989   6.093518
    14  O    2.026810   5.796921   6.469827   6.377031   2.514364
    15  H    2.657054   6.226378   6.995569   6.677422   1.464693
    16  H    2.658225   6.547794   7.144932   7.188462   3.124885
    17  O    3.823048   7.656281   8.151099   8.363142   4.336331
    18  H    4.431169   8.309419   8.825199   8.975583   4.601771
    19  H    4.516019   8.241326   8.694739   8.987198   4.846331
                    6          7          8          9         10
     6  H    0.000000
     7  H    1.556249   0.000000
     8  O    6.445235   5.992885   0.000000
     9  H    7.200380   6.822642   0.972808   0.000000
    10  H    6.587006   5.914796   0.973083   1.546355   0.000000
    11  O    6.097193   6.243626   3.132667   3.529732   3.980477
    12  H    6.184563   6.546322   4.070904   4.419071   4.931462
    13  H    6.717626   6.685030   3.280919   3.724096   4.005873
    14  O    3.171176   3.079367   3.498532   4.133493   3.719455
    15  H    2.146544   2.107909   4.375376   5.093876   4.528336
    16  H    3.579589   3.688707   3.911852   4.343846   4.166183
    17  O    4.599299   4.857016   4.724292   4.891276   4.993084
    18  H    4.662668   5.180521   5.597703   5.746532   5.925667
    19  H    5.156120   5.209990   4.997027   5.100808   5.112748
                   11         12         13         14         15
    11  O    0.000000
    12  H    0.975263   0.000000
    13  H    1.113222   1.716426   0.000000
    14  O    4.078916   4.532745   4.783483   0.000000
    15  H    4.608017   4.947957   5.260296   1.053559   0.000000
    16  H    4.633242   5.030694   5.455668   1.053601   1.753414
    17  O    5.604883   5.944626   6.511871   2.516058   3.119915
    18  H    6.126009   6.331597   7.102685   3.166392   3.570629
    19  H    6.326422   6.751919   7.168126   3.088202   3.682437
                   16         17         18         19
    16  H    0.000000
    17  O    1.465239   0.000000
    18  H    2.145894   0.973080   0.000000
    19  H    2.110551   0.973088   1.555908   0.000000
 Stoichiometry    H12HgO6(2+)
 Framework group  C1[X(H12HgO6)]
 Deg. of freedom    51
 Full point group                 C1      NOp   1
 Largest Abelian subgroup         C1      NOp   1
 Largest concise Abelian subgroup C1      NOp   1
                         Standard orientation:                         
 ---------------------------------------------------------------------
 Center     Atomic      Atomic             Coordinates (Angstroms)
 Number     Number       Type             X           Y           Z
 ---------------------------------------------------------------------
      1         80           0        0.111470    0.026979   -0.193702
      2          8           0        3.960992    0.632132    0.422330
      3          1           0        4.659870   -0.047272    0.443145
      4          1           0        4.406573    1.493640    0.321226
      5          8           0       -2.759236    2.391376    0.663696
      6          1           0       -3.348733    2.810123    0.012828
      7          1           0       -3.093518    2.652045    1.539848
      8          8           0        1.056392   -1.670511    1.448043
      9          1           0        1.258367   -2.592135    1.211039
     10          1           0        0.826994   -1.693737    2.393414
     11          8           0        2.015703    0.081988   -0.964854
     12          1           0        2.073723    0.490426   -1.848568
     13          1           0        2.897984    0.365803   -0.348175
     14          8           0       -1.808830    0.073106    0.453041
     15          1           0       -2.252403    1.027944    0.491943
     16          1           0       -2.447647   -0.654111    0.036937
     17          8           0       -3.255134   -1.761625   -0.481043
     18          1           0       -3.853166   -1.652420   -1.240857
     19          1           0       -3.724779   -2.330335    0.153703
 ---------------------------------------------------------------------
 Rotational constants (GHZ):           1.5925695           0.5709874           0.4921694
 Leave Link  202 at Wed May 11 22:04:05 2022, MaxMem= 67108864000 cpu:               0.3 elap:               0.0
 (Enter /cm/shared/apps/gaussian/intel/EM64T/SSE4_2-enabled/binary//g16/l301.exe)
 Standard basis: SDDAll (6D, 10F)
 Ernie: Thresh=  0.10000D-02 Tol=  0.10000D-05 Strict=F.
 There are   129 symmetry adapted cartesian basis functions of A   symmetry.
 There are   129 symmetry adapted basis functions of A   symmetry.
   129 basis functions,   227 primitive gaussians,   129 cartesian basis functions
    33 alpha electrons       33 beta electrons
       nuclear repulsion energy       336.1204925679 Hartrees.
 IExCor=    0 DFT=F Ex=HF Corr=None ExCW=0 ScaHFX=  1.000000
 ScaDFX=  1.000000  1.000000  1.000000  1.000000 ScalE2=  1.000000  1.000000
 IRadAn=      5 IRanWt=     -1 IRanGd=            0 ICorTp=0 IEmpDi=  4
 NAtoms=   19 NActive=   19 NUniq=   19 SFac= 1.00D+00 NAtFMM=   60 NAOKFM=F Big=F
 Integral buffers will be    131072 words long.
 Raffenetti 1 integral format.
 Two-electron integral symmetry is turned on.
 Leave Link  301 at Wed May 11 22:04:05 2022, MaxMem= 67108864000 cpu:               2.4 elap:               0.1
 (Enter /cm/shared/apps/gaussian/intel/EM64T/SSE4_2-enabled/binary//g16/l302.exe)
 NPDir=0 NMtPBC=     1 NCelOv=     1 NCel=       1 NClECP=     1 NCelD=      1
         NCelK=      1 NCelE2=     1 NClLst=     1 CellRange=     0.0.
 One-electron integrals computed using PRISM.
 One-electron integral symmetry used in STVInt
   1 Symmetry operations used in ECPInt.
 ECPInt:  NShTT=    2346 NPrTT=    7709 LenC2=    2306 LenP2D=    5878.
 LDataN:  DoStor=T MaxTD1= 7 Len=  274
 NBasis=   129 RedAO= T EigKep=  3.79D-04  NBF=   129
 NBsUse=   129 1.00D-06 EigRej= -1.00D+00 NBFU=   129
 Leave Link  302 at Wed May 11 22:04:05 2022, MaxMem= 67108864000 cpu:               7.8 elap:               0.3
 (Enter /cm/shared/apps/gaussian/intel/EM64T/SSE4_2-enabled/binary//g16/l303.exe)
 DipDrv:  MaxL=1.
 Leave Link  303 at Wed May 11 22:04:05 2022, MaxMem= 67108864000 cpu:               0.8 elap:               0.1
 (Enter /cm/shared/apps/gaussian/intel/EM64T/SSE4_2-enabled/binary//g16/l401.exe)
 ExpMin= 2.00D-02 ExpMax= 4.71D+01 ExpMxC= 4.71D+01 IAcc=3 IRadAn=         5 AccDes= 0.00D+00
 Harris functional with IExCor=  205 and IRadAn=       5 diagonalized for initial guess.
 HarFok:  IExCor=  205 AccDes= 0.00D+00 IRadAn=         5 IDoV= 1 UseB2=F ITyADJ=14
 ICtDFT=  3500011 ScaDFX=  1.000000  1.000000  1.000000  1.000000
 Defaulting to unpruned grid for atomic number  80.
 FoFCou: FMM=F IPFlag=           0 FMFlag=      100000 FMFlg1=           0
         NFxFlg=           0 DoJE=T BraDBF=F KetDBF=T FulRan=T
         wScrn=  0.000000 ICntrl=       500 IOpCl=  0 I1Cent=   200000004 NGrid=           0
         NMat0=    1 NMatS0=      1 NMatT0=    0 NMatD0=    1 NMtDS0=    0 NMtDT0=    0
 Petite list used in FoFCou.
 Harris En= -257.161080068151    
 JPrj=0 DoOrth=F DoCkMO=F.
 Leave Link  401 at Wed May 11 22:04:06 2022, MaxMem= 67108864000 cpu:               8.6 elap:               0.3
 (Enter /cm/shared/apps/gaussian/intel/EM64T/SSE4_2-enabled/binary//g16/l502.exe)
 Integral symmetry usage will be decided dynamically.
 Closed shell SCF:
 Using DIIS extrapolation, IDIIS=  1040.
 NGot= 67108864000 LenX= 67108825412 LenY= 67108808330
 Requested convergence on RMS density matrix=1.00D-08 within 128 cycles.
 Requested convergence on MAX density matrix=1.00D-06.
 Requested convergence on             energy=1.00D-06.
 No special actions if energy rises.
 Fock matrices will be formed incrementally for  20 cycles.

 Cycle   1  Pass 0  IDiag  1:
 FoFJK:  IHMeth= 1 ICntrl=       0 DoSepK=F KAlg= 0 I1Cent=           0 FoldK=F
 IRaf= 940000000 NMat=       1 IRICut=       1 DoRegI=T DoRafI=F ISym2E= 0 IDoP0=0 IntGTp=1.
 FoFCou: FMM=F IPFlag=           0 FMFlag=      100000 FMFlg1=           0
         NFxFlg=           0 DoJE=F BraDBF=F KetDBF=F FulRan=T
         wScrn=  0.000000 ICntrl=         0 IOpCl=  0 I1Cent=           0 NGrid=           0
         NMat0=    1 NMatS0=      1 NMatT0=    0 NMatD0=    1 NMtDS0=    0 NMtDT0=    0
 Symmetry not used in FoFCou.
 E= -252.937791671263    
 DIIS: error= 4.08D-02 at cycle   1 NSaved=   1.
 NSaved= 1 IEnMin= 1 EnMin= -252.937791671263     IErMin= 1 ErrMin= 4.08D-02
 ErrMax= 4.08D-02  0.00D+00 EMaxC= 1.00D-01 BMatC= 6.33D-01 BMatP= 6.33D-01
 IDIUse=3 WtCom= 5.92D-01 WtEn= 4.08D-01
 Coeff-Com:  0.100D+01
 Coeff-En:   0.100D+01
 Coeff:      0.100D+01
 Gap=     0.673 Goal=   None    Shift=    0.000
 GapD=    0.673 DampG=2.000 DampE=0.250 DampFc=0.5000 IDamp=-1.
 Damping current iteration by 5.00D-01
 RMSDP=7.97D-03 MaxDP=2.36D-01              OVMax= 2.25D-01

 Cycle   2  Pass 0  IDiag  1:
 RMSU=  3.97D-03    CP:  1.01D+00
 E= -253.208602131486     Delta-E=       -0.270810460223 Rises=F Damp=T
 DIIS: error= 1.01D-02 at cycle   2 NSaved=   2.
 NSaved= 2 IEnMin= 2 EnMin= -253.208602131486     IErMin= 2 ErrMin= 1.01D-02
 ErrMax= 1.01D-02  0.00D+00 EMaxC= 1.00D-01 BMatC= 3.96D-02 BMatP= 6.33D-01
 IDIUse=3 WtCom= 8.99D-01 WtEn= 1.01D-01
 Coeff-Com: -0.240D+00 0.124D+01
 Coeff-En:   0.000D+00 0.100D+01
 Coeff:     -0.216D+00 0.122D+01
 Gap=     0.545 Goal=   None    Shift=    0.000
 RMSDP=2.54D-03 MaxDP=7.87D-02 DE=-2.71D-01 OVMax= 6.39D-02

 Cycle   3  Pass 0  IDiag  1:
 RMSU=  2.12D-03    CP:  1.00D+00  1.34D+00
 E= -253.438332174977     Delta-E=       -0.229730043491 Rises=F Damp=F
 DIIS: error= 3.10D-03 at cycle   3 NSaved=   3.
 NSaved= 3 IEnMin= 3 EnMin= -253.438332174977     IErMin= 3 ErrMin= 3.10D-03
 ErrMax= 3.10D-03  0.00D+00 EMaxC= 1.00D-01 BMatC= 2.87D-03 BMatP= 3.96D-02
 IDIUse=3 WtCom= 9.69D-01 WtEn= 3.10D-02
 Coeff-Com:  0.632D-01-0.228D+00 0.116D+01
 Coeff-En:   0.000D+00 0.000D+00 0.100D+01
 Coeff:      0.613D-01-0.221D+00 0.116D+01
 Gap=     0.542 Goal=   None    Shift=    0.000
 RMSDP=1.01D-03 MaxDP=3.50D-02 DE=-2.30D-01 OVMax= 2.17D-02

 Cycle   4  Pass 0  IDiag  1:
 RMSU=  5.15D-04    CP:  9.93D-01  1.29D+00  1.37D+00
 E= -253.442188242557     Delta-E=       -0.003856067580 Rises=F Damp=F
 DIIS: error= 1.53D-03 at cycle   4 NSaved=   4.
 NSaved= 4 IEnMin= 4 EnMin= -253.442188242557     IErMin= 4 ErrMin= 1.53D-03
 ErrMax= 1.53D-03  0.00D+00 EMaxC= 1.00D-01 BMatC= 4.82D-04 BMatP= 2.87D-03
 IDIUse=3 WtCom= 9.85D-01 WtEn= 1.53D-02
 Coeff-Com:  0.314D-01-0.136D+00 0.344D+00 0.760D+00
 Coeff-En:   0.000D+00 0.000D+00 0.000D+00 0.100D+01
 Coeff:      0.309D-01-0.134D+00 0.339D+00 0.764D+00
 Gap=     0.543 Goal=   None    Shift=    0.000
 RMSDP=2.87D-04 MaxDP=7.40D-03 DE=-3.86D-03 OVMax= 9.73D-03

 Cycle   5  Pass 0  IDiag  1:
 RMSU=  1.88D-04    CP:  9.92D-01  1.31D+00  1.47D+00  1.12D+00
 E= -253.442921260477     Delta-E=       -0.000733017921 Rises=F Damp=F
 DIIS: error= 4.82D-04 at cycle   5 NSaved=   5.
 NSaved= 5 IEnMin= 5 EnMin= -253.442921260477     IErMin= 5 ErrMin= 4.82D-04
 ErrMax= 4.82D-04  0.00D+00 EMaxC= 1.00D-01 BMatC= 4.61D-05 BMatP= 4.82D-04
 IDIUse=3 WtCom= 9.95D-01 WtEn= 4.82D-03
 Coeff-Com: -0.204D-01 0.732D-01-0.224D+00-0.242D+00 0.141D+01
 Coeff-En:   0.000D+00 0.000D+00 0.000D+00 0.000D+00 0.100D+01
 Coeff:     -0.203D-01 0.728D-01-0.223D+00-0.241D+00 0.141D+01
 Gap=     0.542 Goal=   None    Shift=    0.000
 RMSDP=2.19D-04 MaxDP=5.39D-03 DE=-7.33D-04 OVMax= 7.12D-03

 Cycle   6  Pass 0  IDiag  1:
 RMSU=  6.26D-05    CP:  9.91D-01  1.31D+00  1.53D+00  1.34D+00  1.55D+00
 E= -253.443096138751     Delta-E=       -0.000174878273 Rises=F Damp=F
 DIIS: error= 1.52D-04 at cycle   6 NSaved=   6.
 NSaved= 6 IEnMin= 6 EnMin= -253.443096138751     IErMin= 6 ErrMin= 1.52D-04
 ErrMax= 1.52D-04  0.00D+00 EMaxC= 1.00D-01 BMatC= 7.62D-06 BMatP= 4.61D-05
 IDIUse=3 WtCom= 9.98D-01 WtEn= 1.52D-03
 Coeff-Com: -0.654D-02 0.268D-01-0.962D-01-0.110D+00 0.363D+00 0.823D+00
 Coeff-En:   0.000D+00 0.000D+00 0.000D+00 0.000D+00 0.000D+00 0.100D+01
 Coeff:     -0.653D-02 0.268D-01-0.960D-01-0.110D+00 0.363D+00 0.823D+00
 Gap=     0.541 Goal=   None    Shift=    0.000
 RMSDP=5.60D-05 MaxDP=1.40D-03 DE=-1.75D-04 OVMax= 1.79D-03

 Cycle   7  Pass 0  IDiag  1:
 RMSU=  1.62D-05    CP:  9.90D-01  1.31D+00  1.55D+00  1.39D+00  1.66D+00
                    CP:  1.24D+00
 E= -253.443109400103     Delta-E=       -0.000013261352 Rises=F Damp=F
 DIIS: error= 5.32D-05 at cycle   7 NSaved=   7.
 NSaved= 7 IEnMin= 7 EnMin= -253.443109400103     IErMin= 7 ErrMin= 5.32D-05
 ErrMax= 5.32D-05  0.00D+00 EMaxC= 1.00D-01 BMatC= 7.49D-07 BMatP= 7.62D-06
 IDIUse=1 WtCom= 1.00D+00 WtEn= 0.00D+00
 Coeff-Com:  0.293D-02-0.805D-02 0.228D-01 0.323D-01-0.205D+00 0.439D-01
 Coeff-Com:  0.111D+01
 Coeff:      0.293D-02-0.805D-02 0.228D-01 0.323D-01-0.205D+00 0.439D-01
 Coeff:      0.111D+01
 Gap=     0.542 Goal=   None    Shift=    0.000
 RMSDP=2.24D-05 MaxDP=4.69D-04 DE=-1.33D-05 OVMax= 7.09D-04

 Cycle   8  Pass 0  IDiag  1:
 RMSU=  5.34D-06    CP:  9.90D-01  1.31D+00  1.55D+00  1.40D+00  1.72D+00
                    CP:  1.42D+00  1.26D+00
 E= -253.443111002730     Delta-E=       -0.000001602627 Rises=F Damp=F
 DIIS: error= 8.43D-06 at cycle   8 NSaved=   8.
 NSaved= 8 IEnMin= 8 EnMin= -253.443111002730     IErMin= 8 ErrMin= 8.43D-06
 ErrMax= 8.43D-06  0.00D+00 EMaxC= 1.00D-01 BMatC= 2.13D-08 BMatP= 7.49D-07
 IDIUse=1 WtCom= 1.00D+00 WtEn= 0.00D+00
 Coeff-Com: -0.299D-03 0.435D-03 0.722D-03-0.287D-02 0.227D-01-0.254D-01
 Coeff-Com: -0.196D+00 0.120D+01
 Coeff:     -0.299D-03 0.435D-03 0.722D-03-0.287D-02 0.227D-01-0.254D-01
 Coeff:     -0.196D+00 0.120D+01
 Gap=     0.542 Goal=   None    Shift=    0.000
 RMSDP=2.62D-06 MaxDP=7.44D-05 DE=-1.60D-06 OVMax= 6.96D-05

 Initial convergence to 1.0D-05 achieved.  Increase integral accuracy.
 Cycle   9  Pass 1  IDiag  1:
 E= -253.443111046031     Delta-E=       -0.000000043301 Rises=F Damp=F
 DIIS: error= 2.72D-06 at cycle   1 NSaved=   1.
 NSaved= 1 IEnMin= 1 EnMin= -253.443111046031     IErMin= 1 ErrMin= 2.72D-06
 ErrMax= 2.72D-06  0.00D+00 EMaxC= 1.00D-01 BMatC= 3.16D-09 BMatP= 3.16D-09
 IDIUse=1 WtCom= 1.00D+00 WtEn= 0.00D+00
 Coeff-Com:  0.100D+01
 Coeff:      0.100D+01
 Gap=     0.542 Goal=   None    Shift=    0.000
 RMSDP=2.62D-06 MaxDP=7.44D-05 DE=-4.33D-08 OVMax= 1.92D-05

 Cycle  10  Pass 1  IDiag  1:
 RMSU=  5.58D-07    CP:  1.00D+00
 E= -253.443111049373     Delta-E=       -0.000000003343 Rises=F Damp=F
 DIIS: error= 1.93D-06 at cycle   2 NSaved=   2.
 NSaved= 2 IEnMin= 2 EnMin= -253.443111049373     IErMin= 2 ErrMin= 1.93D-06
 ErrMax= 1.93D-06  0.00D+00 EMaxC= 1.00D-01 BMatC= 1.16D-09 BMatP= 3.16D-09
 IDIUse=1 WtCom= 1.00D+00 WtEn= 0.00D+00
 Coeff-Com:  0.344D+00 0.656D+00
 Coeff:      0.344D+00 0.656D+00
 Gap=     0.542 Goal=   None    Shift=    0.000
 RMSDP=2.18D-07 MaxDP=6.76D-06 DE=-3.34D-09 OVMax= 8.64D-06

 Cycle  11  Pass 1  IDiag  1:
 RMSU=  2.16D-07    CP:  1.00D+00  1.04D+00
 E= -253.443111050491     Delta-E=       -0.000000001117 Rises=F Damp=F
 DIIS: error= 5.71D-07 at cycle   3 NSaved=   3.
 NSaved= 3 IEnMin= 3 EnMin= -253.443111050491     IErMin= 3 ErrMin= 5.71D-07
 ErrMax= 5.71D-07  0.00D+00 EMaxC= 1.00D-01 BMatC= 9.67D-11 BMatP= 1.16D-09
 IDIUse=1 WtCom= 1.00D+00 WtEn= 0.00D+00
 Coeff-Com: -0.305D+00-0.285D+00 0.159D+01
 Coeff:     -0.305D+00-0.285D+00 0.159D+01
 Gap=     0.542 Goal=   None    Shift=    0.000
 RMSDP=2.52D-07 MaxDP=5.23D-06 DE=-1.12D-09 OVMax= 9.02D-06

 Cycle  12  Pass 1  IDiag  1:
 RMSU=  6.05D-08    CP:  1.00D+00  1.39D+00  1.67D+00
 E= -253.443111050824     Delta-E=       -0.000000000333 Rises=F Damp=F
 DIIS: error= 1.34D-07 at cycle   4 NSaved=   4.
 NSaved= 4 IEnMin= 4 EnMin= -253.443111050824     IErMin= 4 ErrMin= 1.34D-07
 ErrMax= 1.34D-07  0.00D+00 EMaxC= 1.00D-01 BMatC= 5.62D-12 BMatP= 9.67D-11
 IDIUse=1 WtCom= 1.00D+00 WtEn= 0.00D+00
 Coeff-Com: -0.104D+00-0.111D+00 0.464D+00 0.751D+00
 Coeff:     -0.104D+00-0.111D+00 0.464D+00 0.751D+00
 Gap=     0.542 Goal=   None    Shift=    0.000
 RMSDP=3.03D-08 MaxDP=6.14D-07 DE=-3.33D-10 OVMax= 1.02D-06

 Cycle  13  Pass 1  IDiag  1:
 RMSU=  1.46D-08    CP:  1.00D+00  1.42D+00  1.76D+00  1.18D+00
 E= -253.443111050829     Delta-E=       -0.000000000005 Rises=F Damp=F
 DIIS: error= 4.87D-08 at cycle   5 NSaved=   5.
 NSaved= 5 IEnMin= 5 EnMin= -253.443111050829     IErMin= 5 ErrMin= 4.87D-08
 ErrMax= 4.87D-08  0.00D+00 EMaxC= 1.00D-01 BMatC= 5.70D-13 BMatP= 5.62D-12
 IDIUse=1 WtCom= 1.00D+00 WtEn= 0.00D+00
 Coeff-Com:  0.698D-01 0.676D-01-0.350D+00-0.124D+00 0.134D+01
 Coeff:      0.698D-01 0.676D-01-0.350D+00-0.124D+00 0.134D+01
 Gap=     0.542 Goal=   None    Shift=    0.000
 RMSDP=2.09D-08 MaxDP=4.82D-07 DE=-5.34D-12 OVMax= 6.68D-07

 Cycle  14  Pass 1  IDiag  1:
 RMSU=  5.30D-09    CP:  1.00D+00  1.43D+00  1.80D+00  1.44D+00  1.40D+00
 E= -253.443111050830     Delta-E=       -0.000000000000 Rises=F Damp=F
 DIIS: error= 1.38D-08 at cycle   6 NSaved=   6.
 NSaved= 6 IEnMin= 6 EnMin= -253.443111050830     IErMin= 6 ErrMin= 1.38D-08
 ErrMax= 1.38D-08  0.00D+00 EMaxC= 1.00D-01 BMatC= 2.43D-14 BMatP= 5.70D-13
 IDIUse=1 WtCom= 1.00D+00 WtEn= 0.00D+00
 Coeff-Com:  0.220D-02 0.300D-02-0.676D-02-0.439D-01-0.520D-01 0.110D+01
 Coeff:      0.220D-02 0.300D-02-0.676D-02-0.439D-01-0.520D-01 0.110D+01
 Gap=     0.542 Goal=   None    Shift=    0.000
 RMSDP=3.57D-09 MaxDP=7.01D-08 DE=-1.14D-13 OVMax= 1.15D-07

 SCF Done:  E(RHF) =  -253.443111051     A.U. after   14 cycles
            NFock= 14  Conv=0.36D-08     -V/T= 2.9198
 KE= 1.320158904822D+02 PE=-1.217539482188D+03 EE= 4.959599880871D+02
 Leave Link  502 at Wed May 11 22:04:08 2022, MaxMem= 67108864000 cpu:              61.9 elap:               2.2
 (Enter /cm/shared/apps/gaussian/intel/EM64T/SSE4_2-enabled/binary//g16/l801.exe)
 Range of M.O.s used for correlation:     1   129
 NBasis=   129 NAE=    33 NBE=    33 NFC=     0 NFV=     0
 NROrb=    129 NOA=    33 NOB=    33 NVA=    96 NVB=    96

 **** Warning!!: The largest alpha MO coefficient is  0.28669121D+02

 Leave Link  801 at Wed May 11 22:04:08 2022, MaxMem= 67108864000 cpu:               1.0 elap:               0.1
 (Enter /cm/shared/apps/gaussian/intel/EM64T/SSE4_2-enabled/binary//g16/l906.exe)
 FulOut=F Deriv=T AODrv=T NAtomX=    19
   MMem=           0  MDisk=          33 MDiskD=          33
  W3Min=      549153 MinDsk=     1693460 NBas6D=         129
 NBas2D=        8499    NTT=        8385    LW2=     3308096
    MDV= 67108620017 MDiskM=     7225088 NBas2p=        8176
 Disk-based method using ON**2 memory for 33 occupieds at a time.
 Permanent disk used for amplitudes=    12443904 words.
 Estimated scratch disk usage=   133192176 words.
 IMap=   1   2   3   4   5   6   7   8   9  10  11  12  13  14  15  16  17  18  19  20
 IMap=  21  22  23  24  25  26  27  28  29  30  31  32  33
 Actual    scratch disk usage=   121512432 words.
 JobTyp=1 Pass  1:  I=   1 to  33 NPSUse= 28 ParTrn=T ParDer=T DoDerP=T.
 (rs|ai) integrals will be sorted in core.
 Spin components of T(2) and E(2):
     alpha-alpha T2 =       0.3599247717D-01 E2=     -0.1159006204D+00
     alpha-beta  T2 =       0.2115023804D+00 E2=     -0.6918284567D+00
     beta-beta   T2 =       0.3599247717D-01 E2=     -0.1159006204D+00
 The integrals were generated   1 times.
 ANorm=    0.1132911000D+01
 E2 =    -0.9236296975D+00 EUMP2 =    -0.25436674074834D+03
 Leave Link  906 at Wed May 11 22:04:23 2022, MaxMem= 67108864000 cpu:             431.0 elap:              15.4
 (Enter /cm/shared/apps/gaussian/intel/EM64T/SSE4_2-enabled/binary//g16/l1101.exe)
 Using compressed Sx but separate Hx and Fx, NAtomX=    19.
 Will process     20 centers per pass.
   1 Symmetry operations used in ECPInt.
 ECPInt:  NShTT=    2346 NPrTT=    7709 LenC2=    2306 LenP2D=    5878.
 LDataN:  DoStor=T MaxTD1= 8 Len=  415
 Leave Link 1101 at Wed May 11 22:04:24 2022, MaxMem= 67108864000 cpu:              13.5 elap:               0.5
 (Enter /cm/shared/apps/gaussian/intel/EM64T/SSE4_2-enabled/binary//g16/l1102.exe)
 Leave Link 1102 at Wed May 11 22:04:24 2022, MaxMem= 67108864000 cpu:               1.0 elap:               0.1
 (Enter /cm/shared/apps/gaussian/intel/EM64T/SSE4_2-enabled/binary//g16/l1110.exe)
 Forming Gx(P) for the SCF density, NAtomX=    19.
 Integral derivatives from FoFJK, PRISM(SPDF).
 Do as many integral derivatives as possible in FoFJK.
 G2DrvN: MDV=   67108862534.
 G2DrvN: will do    20 centers at a time, making    1 passes.
 Calling FoFCou, ICntrl=  3107 FMM=F I1Cent=   0 AccDes= 0.00D+00.
 FoFJK:  IHMeth= 1 ICntrl=    3107 DoSepK=F KAlg= 0 I1Cent=           0 FoldK=F
 IRaf=         0 NMat=       1 IRICut=       1 DoRegI=T DoRafI=F ISym2E= 0 IDoP0=0 IntGTp=1.
 FoFCou: FMM=F IPFlag=           0 FMFlag=      100000 FMFlg1=           0
         NFxFlg=           0 DoJE=F BraDBF=F KetDBF=F FulRan=T
         wScrn=  0.000000 ICntrl=      3107 IOpCl=  0 I1Cent=           0 NGrid=           0
         NMat0=    1 NMatS0=      1 NMatT0=    0 NMatD0=    1 NMtDS0=    0 NMtDT0=    0
 Symmetry not used in FoFCou.
 End of G2Drv F.D. properties file   721 does not exist.
 End of G2Drv F.D. properties file   722 does not exist.
 End of G2Drv F.D. properties file   788 does not exist.
 Leave Link 1110 at Wed May 11 22:04:25 2022, MaxMem= 67108864000 cpu:              12.9 elap:               0.5
 (Enter /cm/shared/apps/gaussian/intel/EM64T/SSE4_2-enabled/binary//g16/l1002.exe)
 Minotr:  Closed shell wavefunction.
          IDoAtm=1111111111111111111
          Direct CPHF calculation.
          Differentiating once with respect to electric field.
                with respect to dipole field.
          Differentiating once with respect to nuclear coordinates.
          Requested convergence is 1.0D-08 RMS, and 1.0D-07 maximum.
          Secondary convergence is 1.0D-12 RMS, and 1.0D-12 maximum.
          NewPWx=T KeepS1=T KeepF1=T KeepIn=T MapXYZ=F SortEE=F KeepMc=T.
 Keep R1 ints in memory in canonical form, NReq=41171439.
 FoFCou: FMM=F IPFlag=           0 FMFlag=           0 FMFlg1=           0
         NFxFlg=           0 DoJE=F BraDBF=F KetDBF=F FulRan=T
         wScrn=  0.000000 ICntrl=       600 IOpCl=  0 I1Cent=           0 NGrid=           0
         NMat0=    1 NMatS0=   8385 NMatT0=    0 NMatD0=    1 NMtDS0=    0 NMtDT0=    0
 Symmetry not used in FoFCou.
 Two-electron integral symmetry not used.
          MDV=   67108864000 using IRadAn=       1.
          Solving linear equations simultaneously, MaxMat=       0.
          There are    60 degrees of freedom in the 1st order CPHF.  IDoFFX=6 NUNeed=    60.
     57 vectors produced by pass  0 Test12= 5.28D-15 1.67D-09 XBig12= 1.13D+01 1.14D+00.
 AX will form    57 AO Fock derivatives at one time.
     57 vectors produced by pass  1 Test12= 5.28D-15 1.67D-09 XBig12= 1.82D-01 7.51D-02.
     57 vectors produced by pass  2 Test12= 5.28D-15 1.67D-09 XBig12= 2.14D-03 6.64D-03.
     57 vectors produced by pass  3 Test12= 5.28D-15 1.67D-09 XBig12= 1.60D-05 6.16D-04.
     57 vectors produced by pass  4 Test12= 5.28D-15 1.67D-09 XBig12= 1.13D-07 5.59D-05.
     57 vectors produced by pass  5 Test12= 5.28D-15 1.67D-09 XBig12= 7.20D-10 3.27D-06.
     35 vectors produced by pass  6 Test12= 5.28D-15 1.67D-09 XBig12= 3.23D-12 1.88D-07.
      4 vectors produced by pass  7 Test12= 5.28D-15 1.67D-09 XBig12= 1.23D-14 1.11D-08.
 InvSVY:  IOpt=1 It=  1 EMax= 5.77D-15
 Solved reduced A of dimension   381 with    60 vectors.
 FullF1:  Do perturbations      1 to      60.
 Saving first derivative matrices.
 End of Minotr F.D. properties file   721 does not exist.
 End of Minotr F.D. properties file   722 does not exist.
 End of Minotr F.D. properties file   788 does not exist.
 Leave Link 1002 at Wed May 11 22:04:27 2022, MaxMem= 67108864000 cpu:              78.3 elap:               2.9
 (Enter /cm/shared/apps/gaussian/intel/EM64T/SSE4_2-enabled/binary//g16/l811.exe)
 MDV= 67108864000.
 Form MO integral derivatives with frozen-active canonical formalism.
 MOERI=1 MOERIx=1 NAtoms=    19 NAtomX=    19.
 Discarding MO integrals.
 MO basis two electron integral derivatives will not be stored on disk.
 IAlg= 3 DoFC=T DoPWx=T Debug=F.
 Reordered first order wavefunction length =     20072448
 In DefCFB: NBatch=  1 ICI= 33 ICA= 96 LFMax= 96
            Large arrays: LIAPS=   210874752 LIARS=   111567456 words.
 In StABat: MaxSiz= 39 MinSiz= 13 NAtomB=  4
 DoIAMN: NPSUse= 28.
 Leave Link  811 at Wed May 11 22:05:11 2022, MaxMem= 67108864000 cpu:            1209.2 elap:              43.3
 (Enter /cm/shared/apps/gaussian/intel/EM64T/SSE4_2-enabled/binary//g16/l804.exe)
 Closed-shell transformation, MDV= 67108864000 ITran=4 ISComp=1.
 Semi-Direct transformation.
 ModeAB=           4 MOrb=            33 LenV=   67108313154
 LASXX=     28702344 LTotXX=    28702344 LenRXX=    58192761
 LTotAB=    29490417 MaxLAS=    34273107 LenRXY=           0
 NonZer=    86895105 LenScr=   131092480 LnRSAI=    34273107
 LnScr1=    52176384 LExtra=           0 Total=    275734732
 MaxDsk=          -1 SrtSym=           T ITran=            4
 DoSDTr:  NPSUse= 28
 JobTyp=0 Pass  1:  I=   1 to  33.
 (rs|ai) integrals will be sorted in core.
 Complete sort for first half transformation.
 First half transformation complete.
 Begin second half transformation for I=  10.
 Begin second half transformation for I=  20.
 Begin second half transformation for I=  30.
 Complete sort for second half transformation.
 Second half transformation complete.
 SymMOI:  orbitals are not symmetric.
 Spin components of T(2) and E(2):
     alpha-alpha T2 =       0.3599247717D-01 E2=     -0.1159006204D+00
     alpha-beta  T2 =       0.2115023804D+00 E2=     -0.6918284567D+00
     beta-beta   T2 =       0.3599247717D-01 E2=     -0.1159006204D+00
 ANorm=    0.1602178102D+01
 E2 =    -0.9236296975D+00 EUMP2 =    -0.25436674074834D+03
 Leave Link  804 at Wed May 11 22:05:16 2022, MaxMem= 67108864000 cpu:             146.7 elap:               5.3
 (Enter /cm/shared/apps/gaussian/intel/EM64T/SSE4_2-enabled/binary//g16/l1002.exe)
 Minotr:  Closed shell wavefunction.
          Computing MP2/KS-MP2 derivatives.
          Using Z-Vector for PSCF gradient.
          Skipping F1 and S1 gradient terms here.
          IDoAtm=1111111111111111111
          Using MO integrals in the linear equations.
          Forming densities via direct SCF.
          Differentiating once with respect to electric field.
                with respect to dipole field.
          Differentiating once with respect to nuclear coordinates.
          Requested convergence is 1.0D-10 RMS, and 1.0D-09 maximum.
          NewPWx=F KeepS1=T KeepF1=T KeepIn=T MapXYZ=F SortEE=F KeepMc=T.
          MDV=   67108864000 using IRadAn=       5.
          Solving linear equations separately, MaxMat=       0.
          There are     1 degrees of freedom in the 1st order CPHF.  IDoFFX=0 NUNeed=     1.
 FoFJK:  IHMeth= 1 ICntrl=       0 DoSepK=F KAlg= 0 I1Cent=           0 FoldK=F
 IRaf=         0 NMat=       1 IRICut=       1 DoRegI=T DoRafI=F ISym2E= 0 IDoP0=0 IntGTp=1.
 FoFCou: FMM=F IPFlag=           0 FMFlag=      100000 FMFlg1=           0
         NFxFlg=           0 DoJE=F BraDBF=F KetDBF=F FulRan=T
         wScrn=  0.000000 ICntrl=         0 IOpCl=  0 I1Cent=           0 NGrid=           0
         NMat0=    1 NMatS0=      1 NMatT0=    0 NMatD0=    1 NMtDS0=    0 NMtDT0=    0
 Symmetry not used in FoFCou.
 LinEq1:  Iter=  0 NonCon=     1 RMS=6.34D-03 Max=9.19D-02 NDo=     1
 LinEq1:  Iter=  1 NonCon=     1 RMS=1.38D-03 Max=1.04D-02 NDo=     1
 LinEq1:  Iter=  2 NonCon=     1 RMS=4.42D-04 Max=6.72D-03 NDo=     1
 LinEq1:  Iter=  3 NonCon=     1 RMS=1.31D-04 Max=2.07D-03 NDo=     1
 LinEq1:  Iter=  4 NonCon=     1 RMS=4.51D-05 Max=5.73D-04 NDo=     1
 LinEq1:  Iter=  5 NonCon=     1 RMS=1.03D-05 Max=9.51D-05 NDo=     1
 LinEq1:  Iter=  6 NonCon=     1 RMS=4.41D-06 Max=3.81D-05 NDo=     1
 LinEq1:  Iter=  7 NonCon=     1 RMS=7.58D-07 Max=6.70D-06 NDo=     1
 LinEq1:  Iter=  8 NonCon=     1 RMS=1.92D-07 Max=2.62D-06 NDo=     1
 LinEq1:  Iter=  9 NonCon=     1 RMS=7.50D-08 Max=9.92D-07 NDo=     1
 LinEq1:  Iter= 10 NonCon=     1 RMS=1.70D-08 Max=2.43D-07 NDo=     1
 LinEq1:  Iter= 11 NonCon=     1 RMS=6.07D-09 Max=5.12D-08 NDo=     1
 LinEq1:  Iter= 12 NonCon=     1 RMS=1.86D-09 Max=3.41D-08 NDo=     1
 LinEq1:  Iter= 13 NonCon=     1 RMS=2.86D-10 Max=4.56D-09 NDo=     1
 LinEq1:  Iter= 14 NonCon=     0 RMS=4.19D-11 Max=5.51D-10 NDo=     1
 Linear equations converged to 1.000D-10 1.000D-09 after    14 iterations.
 End of Minotr F.D. properties file   721 does not exist.
 End of Minotr F.D. properties file   722 does not exist.
 End of Minotr F.D. properties file   788 does not exist.
 Leave Link 1002 at Wed May 11 22:05:18 2022, MaxMem= 67108864000 cpu:              65.9 elap:               2.4
 (Enter /cm/shared/apps/gaussian/intel/EM64T/SSE4_2-enabled/binary//g16/l1102.exe)
 Use density number 2.
 Symmetrizing basis deriv contribution to polar:
 IMax=3 JMax=2 DiffMx= 0.00D+00
 Leave Link 1102 at Wed May 11 22:05:19 2022, MaxMem= 67108864000 cpu:               2.2 elap:               0.1
 (Enter /cm/shared/apps/gaussian/intel/EM64T/SSE4_2-enabled/binary//g16/l1110.exe)
 Forming Gx(P) for generalized density number  2 NAtomX=    19.
 Integral derivatives from FoFJK, PRISM(SPDF).
 Do as many integral derivatives as possible in FoFJK.
 G2DrvN: MDV=   67108862534.
 G2DrvN: will do    20 centers at a time, making    1 passes.
 Calling FoFCou, ICntrl=  3107 FMM=F I1Cent=   0 AccDes= 0.00D+00.
 FoFJK:  IHMeth= 1 ICntrl=    3107 DoSepK=F KAlg= 0 I1Cent=           0 FoldK=F
 IRaf=         0 NMat=       1 IRICut=       1 DoRegI=T DoRafI=F ISym2E= 0 IDoP0=0 IntGTp=1.
 FoFCou: FMM=F IPFlag=           0 FMFlag=      100000 FMFlg1=           0
         NFxFlg=           0 DoJE=F BraDBF=F KetDBF=F FulRan=T
         wScrn=  0.000000 ICntrl=      3107 IOpCl=  0 I1Cent=           0 NGrid=           0
         NMat0=    1 NMatS0=      1 NMatT0=    0 NMatD0=    1 NMtDS0=    0 NMtDT0=    0
 Symmetry not used in FoFCou.
 End of G2Drv F.D. properties file   721 does not exist.
 End of G2Drv F.D. properties file   722 does not exist.
 End of G2Drv F.D. properties file   788 does not exist.
 Leave Link 1110 at Wed May 11 22:05:19 2022, MaxMem= 67108864000 cpu:              12.9 elap:               0.5
 (Enter /cm/shared/apps/gaussian/intel/EM64T/SSE4_2-enabled/binary//g16/l1112.exe)
 MP22nd: MDV=   67108864000
 This link is doing NAtomX=    19 total of    60 degrees of freedom.
 Using ON3 I/O method in MakUI.
 Using Ix for Sx.
 Using OV2 memory method for fx*t*t/D, MaxI=    33 DoOO2=F NP=  28.
 R2 and R3 integrals will be kept in memory, NReq=    71415045.
 FoFCou: FMM=F IPFlag=           0 FMFlag=           0 FMFlg1=           0
         NFxFlg=           0 DoJE=F BraDBF=F KetDBF=F FulRan=T
         wScrn=  0.000000 ICntrl=       600 IOpCl=  0 I1Cent=           0 NGrid=           0
         NMat0=    1 NMatS0=      1 NMatT0=    0 NMatD0=    1 NMtDS0=    0 NMtDT0=    0
 Symmetry not used in FoFCou.
 DD1Dir will call FoFMem   1 times, MxPair=      1122
 NAB=   561 NAA=     0 NBB=     0.
 Symmetry is being used.
 FoFJK:  IHMeth= 1 ICntrl=       0 DoSepK=F KAlg= 0 I1Cent=           0 FoldK=F
 IRaf=         0 NMat=      60 IRICut=     150 DoRegI=T DoRafI=T ISym2E= 2 IDoP0=0 IntGTp=1.
 Discarding MO integrals.
 Leave Link 1112 at Wed May 11 22:05:51 2022, MaxMem= 67108864000 cpu:             900.4 elap:              32.3
 (Enter /cm/shared/apps/gaussian/intel/EM64T/SSE4_2-enabled/binary//g16/l601.exe)
 Copying SCF densities to generalized density rwf, IOpCl= 0 IROHF=0.

 **********************************************************************

            Population analysis using the SCF density.

 **********************************************************************

 Orbital symmetries:
       Occupied  (A) (A) (A) (A) (A) (A) (A) (A) (A) (A) (A) (A)
                 (A) (A) (A) (A) (A) (A) (A) (A) (A) (A) (A) (A)
                 (A) (A) (A) (A) (A) (A) (A) (A) (A)
       Virtual   (A) (A) (A) (A) (A) (A) (A) (A) (A) (A) (A) (A)
                 (A) (A) (A) (A) (A) (A) (A) (A) (A) (A) (A) (A)
                 (A) (A) (A) (A) (A) (A) (A) (A) (A) (A) (A) (A)
                 (A) (A) (A) (A) (A) (A) (A) (A) (A) (A) (A) (A)
                 (A) (A) (A) (A) (A) (A) (A) (A) (A) (A) (A) (A)
                 (A) (A) (A) (A) (A) (A) (A) (A) (A) (A) (A) (A)
                 (A) (A) (A) (A) (A) (A) (A) (A) (A) (A) (A) (A)
                 (A) (A) (A) (A) (A) (A) (A) (A) (A) (A) (A) (A)
 The electronic state is 1-A.
 Alpha  occ. eigenvalues --   -5.41418  -3.41049  -3.40697  -3.40409  -1.69267
 Alpha  occ. eigenvalues --   -1.67097  -1.65858  -1.65727  -1.64462  -1.63049
 Alpha  occ. eigenvalues --   -1.06823  -1.05753  -1.05423  -1.02464  -1.00440
 Alpha  occ. eigenvalues --   -1.00366  -0.99728  -0.98565  -0.98072  -0.97887
 Alpha  occ. eigenvalues --   -0.97039  -0.94341  -0.91112  -0.87767  -0.86050
 Alpha  occ. eigenvalues --   -0.84427  -0.83260  -0.82308  -0.81081  -0.80319
 Alpha  occ. eigenvalues --   -0.79957  -0.79878  -0.78090
 Alpha virt. eigenvalues --   -0.23934  -0.18338  -0.16332  -0.14772  -0.14526
 Alpha virt. eigenvalues --   -0.09994  -0.09361  -0.08420  -0.07073  -0.06023
 Alpha virt. eigenvalues --   -0.05281  -0.05025  -0.03692  -0.02577  -0.02403
 Alpha virt. eigenvalues --   -0.00469  -0.00290   0.00413   0.01235   0.01655
 Alpha virt. eigenvalues --    0.02115   0.03519   0.03924   0.04639   0.05087
 Alpha virt. eigenvalues --    0.06324   0.07236   0.08389   0.09795   0.11689
 Alpha virt. eigenvalues --    0.12697   0.12759   0.13281   0.14534   0.16190
 Alpha virt. eigenvalues --    0.16823   0.18002   0.19559   0.21337   0.21637
 Alpha virt. eigenvalues --    0.22556   0.26363   0.27015   0.28281   0.37369
 Alpha virt. eigenvalues --    0.64571   0.67523   0.69186   0.71133   0.95103
 Alpha virt. eigenvalues --    0.99656   1.06298   1.07240   1.08200   1.08806
 Alpha virt. eigenvalues --    1.09748   1.10376   1.11195   1.12234   1.13039
 Alpha virt. eigenvalues --    1.14827   1.14835   1.15453   1.16569   1.17088
 Alpha virt. eigenvalues --    1.18443   1.18594   1.19037   1.20591   1.21376
 Alpha virt. eigenvalues --    1.23623   1.25458   1.27799   1.29034   1.31781
 Alpha virt. eigenvalues --    1.33511   1.33999   1.36123   1.36957   1.37918
 Alpha virt. eigenvalues --    1.39736   1.44407   1.49592   1.54306   2.17707
 Alpha virt. eigenvalues --    2.29715   2.36903   2.44165   2.85806   3.10110
 Alpha virt. eigenvalues --    4.26268  15.49867  41.60900  41.66197  41.75904
 Alpha virt. eigenvalues --   81.48062
          Condensed to atoms (all electrons):
               1          2          3          4          5          6
     1  Hg  18.399501  -0.001097   0.000784   0.000347  -0.002911   0.000532
     2  O   -0.001097   6.358739   0.259177   0.257892   0.000004  -0.000000
     3  H    0.000784   0.259177   0.232985  -0.013188  -0.000000  -0.000000
     4  H    0.000347   0.257892  -0.013188   0.240437  -0.000000   0.000000
     5  O   -0.002911   0.000004  -0.000000  -0.000000   6.396645   0.261828
     6  H    0.000532  -0.000000  -0.000000   0.000000   0.261828   0.247358
     7  H    0.000793  -0.000000  -0.000000   0.000000   0.263935  -0.015309
     8  O    0.024684  -0.002309  -0.000086   0.000024   0.000011   0.000000
     9  H   -0.000522   0.000007   0.000001   0.000000   0.000000  -0.000000
    10  H   -0.003881   0.000063  -0.000000  -0.000000   0.000001   0.000000
    11  O    0.107244  -0.054766   0.001907   0.001314  -0.000027  -0.000001
    12  H   -0.006946   0.001319  -0.000027  -0.000042   0.000007   0.000000
    13  H   -0.002630   0.080842  -0.002405  -0.002116   0.000001  -0.000000
    14  O    0.139546  -0.000025   0.000000   0.000002  -0.032569   0.000464
    15  H   -0.004923   0.000003  -0.000000   0.000000   0.045117  -0.000854
    16  H   -0.003130   0.000000  -0.000000  -0.000000   0.000143  -0.000003
    17  O   -0.002386   0.000001  -0.000000  -0.000000  -0.001110   0.000046
    18  H    0.000627  -0.000000   0.000000  -0.000000   0.000045  -0.000000
    19  H    0.000932  -0.000000  -0.000000   0.000000  -0.000001  -0.000000
               7          8          9         10         11         12
     1  Hg   0.000793   0.024684  -0.000522  -0.003881   0.107244  -0.006946
     2  O   -0.000000  -0.002309   0.000007   0.000063  -0.054766   0.001319
     3  H   -0.000000  -0.000086   0.000001  -0.000000   0.001907  -0.000027
     4  H    0.000000   0.000024   0.000000  -0.000000   0.001314  -0.000042
     5  O    0.263935   0.000011   0.000000   0.000001  -0.000027   0.000007
     6  H   -0.015309   0.000000  -0.000000   0.000000  -0.000001   0.000000
     7  H    0.240815   0.000001   0.000000  -0.000000   0.000000  -0.000000
     8  O    0.000001   6.411822   0.260734   0.262689  -0.008052   0.000488
     9  H    0.000000   0.260734   0.252540  -0.015915  -0.000139  -0.000004
    10  H   -0.000000   0.262689  -0.015915   0.250458   0.000552  -0.000000
    11  O    0.000000  -0.008052  -0.000139   0.000552   6.596521   0.243172
    12  H   -0.000000   0.000488  -0.000004  -0.000000   0.243172   0.241592
    13  H   -0.000000   0.000838   0.000005  -0.000006   0.156499  -0.006992
    14  O    0.000431  -0.006081  -0.000042   0.000384   0.000655  -0.000239
    15  H   -0.001037   0.000099  -0.000000  -0.000001  -0.000160   0.000000
    16  H   -0.000012  -0.000059   0.000001  -0.000001   0.000044   0.000000
    17  O   -0.000005  -0.000486   0.000018   0.000004  -0.000073   0.000008
    18  H   -0.000000  -0.000008   0.000000   0.000000   0.000002   0.000000
    19  H   -0.000000   0.000013   0.000000   0.000000   0.000001  -0.000000
              13         14         15         16         17         18
     1  Hg  -0.002630   0.139546  -0.004923  -0.003130  -0.002386   0.000627
     2  O    0.080842  -0.000025   0.000003   0.000000   0.000001  -0.000000
     3  H   -0.002405   0.000000  -0.000000  -0.000000  -0.000000   0.000000
     4  H   -0.002116   0.000002   0.000000  -0.000000  -0.000000  -0.000000
     5  O    0.000001  -0.032569   0.045117   0.000143  -0.001110   0.000045
     6  H   -0.000000   0.000464  -0.000854  -0.000003   0.000046  -0.000000
     7  H   -0.000000   0.000431  -0.001037  -0.000012  -0.000005  -0.000000
     8  O    0.000838  -0.006081   0.000099  -0.000059  -0.000486  -0.000008
     9  H    0.000005  -0.000042  -0.000000   0.000001   0.000018   0.000000
    10  H   -0.000006   0.000384  -0.000001  -0.000001   0.000004   0.000000
    11  O    0.156499   0.000655  -0.000160   0.000044  -0.000073   0.000002
    12  H   -0.006992  -0.000239   0.000000   0.000000   0.000008   0.000000
    13  H    0.141000   0.000076   0.000000   0.000000  -0.000000   0.000000
    14  O    0.000076   6.642570   0.187816   0.186611  -0.032327   0.000414
    15  H    0.000000   0.187816   0.157051  -0.004497  -0.000014  -0.000000
    16  H    0.000000   0.186611  -0.004497   0.154557   0.044917  -0.000894
    17  O   -0.000000  -0.032327  -0.000014   0.044917   6.397197   0.261876
    18  H    0.000000   0.000414  -0.000000  -0.000894   0.261876   0.247662
    19  H   -0.000000   0.000267  -0.000012  -0.001065   0.263390  -0.015450
              19
     1  Hg   0.000932
     2  O   -0.000000
     3  H   -0.000000
     4  H    0.000000
     5  O   -0.000001
     6  H   -0.000000
     7  H   -0.000000
     8  O    0.000013
     9  H    0.000000
    10  H    0.000000
    11  O    0.000001
    12  H   -0.000000
    13  H   -0.000000
    14  O    0.000267
    15  H   -0.000012
    16  H   -0.001065
    17  O    0.263390
    18  H   -0.015450
    19  H    0.240917
 Mulliken charges:
               1
     1  Hg   1.353437
     2  O   -0.899851
     3  H    0.520852
     4  H    0.515330
     5  O   -0.931120
     6  H    0.505937
     7  H    0.510386
     8  O   -0.944322
     9  H    0.503316
    10  H    0.505656
    11  O   -1.044693
    12  H    0.527663
    13  H    0.634887
    14  O   -1.087954
    15  H    0.621410
    16  H    0.623387
    17  O   -0.931054
    18  H    0.505725
    19  H    0.511009
 Sum of Mulliken charges =   2.00000
 Mulliken charges with hydrogens summed into heavy atoms:
               1
     1  Hg   1.353437
     2  O    0.136331
     5  O    0.085204
     8  O    0.064650
    11  O    0.117857
    14  O    0.156843
    17  O    0.085679
         Mulliken charges condensed to fragments:
      1      1.353437
      2      0.646563
 APT charges:
               1
     1  Hg   1.453410
     2  O   -0.808302
     3  H    0.397463
     4  H    0.389216
     5  O   -0.777140
     6  H    0.373305
     7  H    0.380889
     8  O   -0.702290
     9  H    0.345314
    10  H    0.347424
    11  O   -0.948526
    12  H    0.338662
    13  H    0.868644
    14  O   -1.094777
    15  H    0.728956
    16  H    0.731863
    17  O   -0.776873
    18  H    0.372486
    19  H    0.380277
 Sum of APT charges =   2.00000
 APT charges with hydrogens summed into heavy atoms:
               1
     1  Hg   1.453410
     2  O   -0.021623
     5  O   -0.022946
     8  O   -0.009552
    11  O    0.258780
    14  O    0.366041
    17  O   -0.024110
         APT charges condensed to fragments:
      1      1.453410
      2      0.546590
 Electronic spatial extent (au):  <R**2>=           1870.0119
 Charge=              2.0000 electrons
 Dipole moment (field-independent basis, Debye):
    X=             -1.2393    Y=              1.1557    Z=             -0.0638  Tot=              1.6957
 Quadrupole moment (field-independent basis, Debye-Ang):
   XX=             47.7718   YY=            -23.0055   ZZ=            -40.3799
   XY=              2.3249   XZ=             -0.7553   YZ=             -4.4495
 Traceless Quadrupole moment (field-independent basis, Debye-Ang):
   XX=             52.9763   YY=            -17.8009   ZZ=            -35.1754
   XY=              2.3249   XZ=             -0.7553   YZ=             -4.4495
 Octapole moment (field-independent basis, Debye-Ang**2):
  XXX=             36.3588  YYY=              0.8688  ZZZ=             -5.3872  XYY=            -50.4501
  XXY=             40.7322  XXZ=             -8.8258  XZZ=             -5.7686  YZZ=             -4.4176
  YYZ=             24.3152  XYZ=            -29.4253
 Hexadecapole moment (field-independent basis, Debye-Ang**3):
 XXXX=            309.3725 YYYY=           -289.5720 ZZZZ=           -121.2573 XXXY=            194.0633
 XXXZ=             64.5937 YYYX=            -88.4380 YYYZ=            -23.0837 ZZZX=            -18.3370
 ZZZY=            -25.5614 XXYY=             61.3060 XXZZ=           -232.8422 YYZZ=            -54.8449
 XXYZ=             56.4948 YYXZ=            -18.7106 ZZXY=            -25.9111
 N-N= 3.361204925679D+02 E-N=-1.217539483465D+03  KE= 1.320158904822D+02
  Exact polarizability:  70.241  -0.239  53.253  -0.082  -1.073  49.210
 Approx polarizability:  37.873  -0.298  35.470   0.752  -0.349  35.184
 No NMR shielding tensors so no spin-rotation constants.
 Leave Link  601 at Wed May 11 22:05:52 2022, MaxMem= 67108864000 cpu:               3.9 elap:               0.2
 (Enter /cm/shared/apps/gaussian/intel/EM64T/SSE4_2-enabled/binary//g16/l701.exe)
 ... and contract with generalized density number  2.
 Compute integral second derivatives.
   1 Symmetry operations used in ECPInt.
 ECPInt:  NShTT=    2346 NPrTT=    7709 LenC2=    2306 LenP2D=    5878.
 LDataN:  DoStor=T MaxTD1= 9 Len=  602
 Leave Link  701 at Wed May 11 22:05:53 2022, MaxMem= 67108864000 cpu:              38.6 elap:               1.4
 (Enter /cm/shared/apps/gaussian/intel/EM64T/SSE4_2-enabled/binary//g16/l702.exe)
 L702 exits ... SP integral derivatives will be done elsewhere.
 Leave Link  702 at Wed May 11 22:05:53 2022, MaxMem= 67108864000 cpu:               0.7 elap:               0.0
 (Enter /cm/shared/apps/gaussian/intel/EM64T/SSE4_2-enabled/binary//g16/l703.exe)
 Integral derivatives from FoFJK, PRISM(SPDF).
 Compute integral second derivatives, UseDBF=F ICtDFT=           0.
 Calling FoFJK, ICntrl=  10100127 FMM=F ISym2X=0 I1Cent= 0 IOpClX= 0 NMat=1 NMatS=1 NMatT=0.
 FoFJK:  IHMeth= 1 ICntrl=10100127 DoSepK=F KAlg= 0 I1Cent=           0 FoldK=F
 IRaf=         0 NMat=       1 IRICut=       1 DoRegI=T DoRafI=F ISym2E= 0 IDoP0=0 IntGTp=1.
 FoFCou: FMM=F IPFlag=           0 FMFlag=      100000 FMFlg1=         800
         NFxFlg=           0 DoJE=F BraDBF=F KetDBF=F FulRan=T
         wScrn=  0.000000 ICntrl=  10100127 IOpCl=  0 I1Cent=           0 NGrid=           0
         NMat0=    1 NMatS0=      1 NMatT0=    0 NMatD0=    1 NMtDS0=    0 NMtDT0=    0
 Symmetry not used in FoFCou.
 Leave Link  703 at Wed May 11 22:05:54 2022, MaxMem= 67108864000 cpu:              20.4 elap:               0.8
 (Enter /cm/shared/apps/gaussian/intel/EM64T/SSE4_2-enabled/binary//g16/l716.exe)
 Dipole        =-4.59810390D-01 3.98094248D-01 6.53952309D-02
 Polarizability= 7.02411251D+01-2.38593680D-01 5.32530498D+01
                -8.20355841D-02-1.07259799D+00 4.92096575D+01
 Full mass-weighted force constant matrix:
 Low frequencies --- -427.5385 -367.9576 -362.6762 -317.4567  -99.5832  -78.8508
 Low frequencies ---  -75.4545  -63.7336  -33.5268
 ******    7 imaginary frequencies (negative Signs) ****** 
 Diagonal vibrational polarizability:
      220.9998470     490.5675213     486.4975412
 Harmonic frequencies (cm**-1), IR intensities (KM/Mole), Raman scattering
 activities (A**4/AMU), depolarization ratios for plane and unpolarized
 incident light, reduced masses (AMU), force constants (mDyne/A),
 and normal coordinates:
                      1                      2                      3
                      A                      A                      A
 Frequencies --   -427.1438              -366.7480              -362.2082
 Red. masses --      1.0154                 1.0136                 1.0284
 Frc consts  --      0.1092                 0.0803                 0.0795
 IR Inten    --     10.0561                 4.6646                46.6207
  Atom  AN      X      Y      Z        X      Y      Z        X      Y      Z
     1  80    -0.00  -0.00  -0.00     0.00   0.00   0.00    -0.00   0.00  -0.00
     2   8     0.00  -0.00  -0.01     0.00  -0.00   0.00    -0.00  -0.00   0.01
     3   1     0.02   0.02  -0.03    -0.00  -0.00   0.00    -0.00  -0.00   0.01
     4   1    -0.02   0.01   0.03     0.00  -0.00   0.00     0.00  -0.00   0.00
     5   8     0.00   0.00   0.00    -0.00  -0.00  -0.00    -0.00   0.00  -0.02
     6   1    -0.01  -0.01   0.00    -0.27  -0.23   0.09    -0.46  -0.39   0.13
     7   1     0.01   0.01   0.00     0.28   0.20   0.04     0.48   0.37   0.05
     8   8    -0.01   0.01   0.01     0.00  -0.01  -0.01    -0.00  -0.00   0.00
     9   1     0.69   0.17  -0.01    -0.00  -0.00  -0.02    -0.02  -0.01   0.00
    10   1    -0.63  -0.27  -0.15    -0.02  -0.02  -0.01     0.02   0.00   0.01
    11   8     0.00  -0.00   0.00     0.00   0.00  -0.00     0.00   0.00   0.00
    12   1     0.00  -0.02  -0.01    -0.00   0.02   0.00     0.00   0.00   0.00
    13   1     0.00   0.01  -0.00     0.00   0.00   0.00    -0.00  -0.00   0.00
    14   8     0.00  -0.00   0.01    -0.00  -0.00  -0.00     0.01  -0.01   0.02
    15   1     0.00   0.00   0.01     0.00  -0.00   0.03     0.00  -0.01   0.06
    16   1    -0.00  -0.00   0.00     0.00   0.02  -0.05     0.00  -0.01   0.04
    17   8    -0.00   0.00   0.00     0.00  -0.01   0.01     0.00   0.01  -0.02
    18   1    -0.01   0.01   0.01     0.37  -0.37  -0.33    -0.21   0.22   0.17
    19   1     0.01  -0.01  -0.00    -0.38   0.44   0.14     0.22  -0.26  -0.10
                      4                      5                      6
                      A                      A                      A
 Frequencies --   -316.5426               -95.7584               -71.0707
 Red. masses --      1.0345                 2.7995                 2.7292
 Frc consts  --      0.0611                 0.0151                 0.0081
 IR Inten    --     49.0621                 3.3294                45.7716
  Atom  AN      X      Y      Z        X      Y      Z        X      Y      Z
     1  80    -0.00   0.00  -0.00    -0.00   0.01   0.00     0.00   0.01  -0.02
     2   8    -0.01   0.03  -0.00     0.06  -0.20   0.01     0.01  -0.04   0.13
     3   1    -0.22  -0.15   0.65    -0.17  -0.43  -0.04    -0.01  -0.06   0.14
     4   1     0.27  -0.17  -0.62     0.35  -0.34   0.06     0.03  -0.05   0.14
     5   8    -0.00  -0.01   0.01    -0.01  -0.04  -0.09     0.01   0.03   0.07
     6   1     0.00   0.00   0.01     0.06  -0.10  -0.19    -0.11   0.15   0.25
     7   1    -0.00  -0.01   0.01    -0.10   0.05  -0.15     0.17  -0.12   0.17
     8   8     0.01  -0.01  -0.00     0.02   0.03   0.00    -0.02  -0.03  -0.04
     9   1     0.01  -0.01  -0.01     0.04   0.01   0.08    -0.01  -0.01  -0.11
    10   1    -0.06  -0.03  -0.02    -0.06   0.09  -0.01     0.00  -0.10  -0.04
    11   8    -0.00  -0.01   0.00    -0.02   0.23  -0.03     0.04  -0.01   0.06
    12   1     0.00  -0.02  -0.00    -0.09   0.52   0.10     0.08   0.00   0.07
    13   1     0.01  -0.05  -0.00     0.00   0.09  -0.00     0.01  -0.02   0.09
    14   8     0.00  -0.00   0.00     0.00  -0.06   0.04    -0.04   0.05  -0.16
    15   1     0.00  -0.00   0.01    -0.00  -0.06   0.03    -0.03   0.05  -0.15
    16   1     0.00  -0.00  -0.00     0.01  -0.06   0.04    -0.03   0.03  -0.14
    17   8     0.00   0.00  -0.01    -0.00  -0.05   0.04    -0.00  -0.12   0.17
    18   1     0.00   0.01  -0.01    -0.00  -0.05   0.04    -0.25  -0.38   0.33
    19   1    -0.00  -0.00  -0.01    -0.00  -0.05   0.04     0.28  -0.05   0.44
                      7                      8                      9
                      A                      A                      A
 Frequencies --    -67.8916                26.1007                48.8071
 Red. masses --      2.9577                 5.2467                 5.2097
 Frc consts  --      0.0080                 0.0021                 0.0073
 IR Inten    --     15.7931                 9.7743                 5.7524
  Atom  AN      X      Y      Z        X      Y      Z        X      Y      Z
     1  80     0.00  -0.01  -0.02    -0.00  -0.04  -0.02    -0.04   0.00   0.03
     2   8     0.02  -0.04  -0.01    -0.07   0.20   0.12     0.04   0.03  -0.12
     3   1    -0.01  -0.08  -0.03    -0.05   0.23   0.17     0.04   0.02  -0.14
     4   1     0.07  -0.06  -0.00    -0.10   0.22   0.11     0.05   0.02  -0.16
     5   8     0.03  -0.04   0.18     0.28   0.04  -0.02     0.30   0.15  -0.03
     6   1    -0.08   0.09   0.36     0.31   0.09  -0.02     0.30   0.27   0.05
     7   1     0.18  -0.20   0.29     0.31   0.09  -0.02     0.41   0.14   0.02
     8   8    -0.05   0.18   0.20     0.07   0.01  -0.01    -0.04  -0.02  -0.00
     9   1    -0.04   0.10   0.50     0.07  -0.00   0.03    -0.04  -0.00  -0.06
    10   1    -0.17   0.46   0.18     0.06   0.05  -0.02    -0.02  -0.07   0.00
    11   8     0.01   0.02  -0.01     0.00   0.19   0.01    -0.04   0.04   0.01
    12   1     0.01   0.04   0.00    -0.02   0.35   0.08    -0.08   0.05   0.02
    13   1     0.01   0.01  -0.00    -0.03   0.17   0.06    -0.01   0.03  -0.02
    14   8    -0.01  -0.03  -0.05    -0.00  -0.10  -0.00    -0.07  -0.00  -0.05
    15   1    -0.01  -0.03  -0.03     0.06  -0.08  -0.00    -0.02   0.01  -0.08
    16   1    -0.01  -0.03  -0.06    -0.06  -0.06   0.01    -0.02  -0.02  -0.09
    17   8    -0.01  -0.00  -0.08    -0.24   0.08   0.06     0.22  -0.20  -0.13
    18   1     0.02   0.03  -0.09    -0.24   0.16   0.07     0.21  -0.29  -0.14
    19   1    -0.04  -0.01  -0.11    -0.29   0.12   0.06     0.30  -0.24  -0.12
                     10                     11                     12
                      A                      A                      A
 Frequencies --     58.8379                64.6686               107.6820
 Red. masses --      5.3043                 4.9570                 6.0971
 Frc consts  --      0.0108                 0.0122                 0.0417
 IR Inten    --      1.1982                 2.1439                 5.1663
  Atom  AN      X      Y      Z        X      Y      Z        X      Y      Z
     1  80     0.01  -0.00   0.04    -0.03  -0.00   0.02     0.00   0.08  -0.00
     2   8     0.26   0.08  -0.23     0.01  -0.11   0.03    -0.02  -0.09  -0.01
     3   1     0.26   0.08  -0.28     0.01  -0.11  -0.00     0.03  -0.03  -0.02
     4   1     0.25   0.07  -0.36     0.02  -0.11   0.03    -0.09  -0.05   0.03
     5   8    -0.08  -0.04  -0.05    -0.00   0.03  -0.01     0.18  -0.21  -0.05
     6   1    -0.19   0.04   0.09    -0.06   0.09   0.07     0.27  -0.22  -0.13
     7   1     0.04  -0.16   0.03     0.08  -0.04   0.04     0.14  -0.09  -0.10
     8   8    -0.08  -0.06   0.01     0.42   0.15  -0.03    -0.04  -0.01   0.03
     9   1    -0.09  -0.05  -0.06     0.51   0.21  -0.19    -0.09  -0.00  -0.03
    10   1    -0.04  -0.13   0.02     0.52  -0.03  -0.01    -0.03  -0.06   0.03
    11   8     0.04   0.07   0.11    -0.01  -0.09   0.05     0.01  -0.20   0.03
    12   1     0.00   0.09   0.11     0.02  -0.11   0.04     0.09  -0.48  -0.09
    13   1     0.12   0.06   0.04    -0.01  -0.10   0.05     0.01  -0.13   0.01
    14   8    -0.07  -0.02  -0.22    -0.06   0.02  -0.11     0.01  -0.28   0.04
    15   1    -0.08  -0.02  -0.22    -0.05   0.02  -0.11    -0.03  -0.30   0.06
    16   1    -0.08  -0.02  -0.23    -0.06   0.02  -0.13     0.03  -0.29   0.01
    17   8    -0.21   0.02  -0.06    -0.06   0.02  -0.10    -0.17  -0.13   0.01
    18   1    -0.33  -0.03   0.03    -0.08   0.01  -0.09    -0.12  -0.03  -0.01
    19   1    -0.11   0.07   0.06    -0.04   0.02  -0.08    -0.26  -0.10  -0.04
                     13                     14                     15
                      A                      A                      A
 Frequencies --    129.9292               190.5328               278.0433
 Red. masses --      5.9510                 6.2971                 1.1273
 Frc consts  --      0.0592                 0.1347                 0.0513
 IR Inten    --      9.6040                 2.8949                 1.2063
  Atom  AN      X      Y      Z        X      Y      Z        X      Y      Z
     1  80    -0.05  -0.00  -0.06     0.01  -0.02   0.02    -0.00   0.00   0.00
     2   8     0.29   0.04   0.04     0.09  -0.01   0.05    -0.00  -0.01   0.01
     3   1     0.32   0.08  -0.03     0.14   0.05   0.10    -0.03  -0.03  -0.01
     4   1     0.22   0.06  -0.08     0.04   0.01  -0.05     0.02  -0.02   0.02
     5   8     0.01  -0.01   0.03     0.00   0.00   0.01    -0.01  -0.00  -0.06
     6   1     0.13  -0.11  -0.13     0.02  -0.02  -0.02    -0.17   0.30   0.29
     7   1    -0.13   0.14  -0.06    -0.01   0.04  -0.01     0.25  -0.37   0.15
     8   8     0.05  -0.02   0.01    -0.18   0.38  -0.37    -0.00  -0.01  -0.01
     9   1     0.01  -0.03   0.03    -0.16   0.39  -0.37    -0.01   0.00  -0.07
    10   1     0.06   0.00   0.01    -0.05   0.40  -0.33     0.01  -0.07  -0.01
    11   8     0.10  -0.02   0.32     0.05  -0.05  -0.01    -0.00   0.01   0.00
    12   1     0.26  -0.11   0.28     0.08  -0.02   0.01    -0.00  -0.01  -0.00
    13   1     0.12  -0.02   0.35    -0.00  -0.10  -0.03    -0.00   0.02   0.00
    14   8     0.04  -0.01   0.20    -0.02  -0.02   0.05     0.00   0.02   0.00
    15   1     0.04  -0.01   0.21    -0.02  -0.03   0.04    -0.04   0.01  -0.24
    16   1     0.02  -0.01   0.22    -0.01  -0.02   0.05     0.03  -0.13   0.22
    17   8     0.08   0.04   0.06    -0.03  -0.04   0.00     0.01  -0.02   0.06
    18   1     0.23   0.15  -0.04    -0.01   0.02  -0.01     0.27   0.37  -0.09
    19   1    -0.06  -0.01  -0.09    -0.07  -0.06  -0.04    -0.30  -0.17  -0.30
                     16                     17                     18
                      A                      A                      A
 Frequencies --    282.9314               311.1270               341.6556
 Red. masses --      4.1311                 1.1623                 1.2604
 Frc consts  --      0.1948                 0.0663                 0.0867
 IR Inten    --     23.2732                93.2455                46.7917
  Atom  AN      X      Y      Z        X      Y      Z        X      Y      Z
     1  80     0.03   0.00  -0.01    -0.00   0.01   0.00    -0.00   0.00   0.01
     2   8    -0.00   0.00   0.00     0.04  -0.04   0.03     0.02   0.02   0.02
     3   1    -0.04  -0.03  -0.00     0.39   0.32   0.22    -0.05  -0.05  -0.05
     4   1     0.03  -0.01   0.05    -0.38   0.15  -0.21     0.11  -0.02   0.06
     5   8    -0.11   0.27   0.08    -0.01   0.00  -0.01    -0.00   0.00  -0.02
     6   1    -0.02   0.10  -0.10    -0.01   0.01   0.00    -0.02   0.04   0.02
     7   1    -0.27   0.46  -0.03    -0.00  -0.01  -0.00     0.03  -0.02   0.00
     8   8     0.02  -0.03   0.02     0.01  -0.02   0.00     0.04  -0.06  -0.09
     9   1    -0.01  -0.04   0.03     0.04  -0.05   0.14     0.09  -0.24   0.63
    10   1    -0.02  -0.03   0.01    -0.04   0.10  -0.00    -0.25   0.61  -0.15
    11   8     0.03  -0.00  -0.00     0.00  -0.03  -0.06     0.00  -0.02  -0.01
    12   1     0.04  -0.07  -0.03    -0.01   0.52   0.18     0.02  -0.18  -0.08
    13   1     0.05   0.05   0.02     0.03  -0.37  -0.00    -0.03   0.05  -0.05
    14   8    -0.05  -0.01   0.09    -0.01  -0.00  -0.00    -0.01   0.00  -0.01
    15   1    -0.06  -0.05   0.17    -0.01  -0.01  -0.01    -0.02   0.00  -0.04
    16   1    -0.06  -0.04   0.21    -0.00  -0.02   0.01    -0.01  -0.01  -0.01
    17   8    -0.17  -0.25  -0.05    -0.00  -0.01   0.01    -0.00  -0.00   0.00
    18   1     0.00   0.02  -0.15     0.03   0.01  -0.01     0.00  -0.02  -0.00
    19   1    -0.41  -0.34  -0.30    -0.02  -0.04  -0.03     0.01  -0.01   0.00
                     19                     20                     21
                      A                      A                      A
 Frequencies --    362.0004               385.6388               409.5747
 Red. masses --      3.6410                 1.7249                 4.8735
 Frc consts  --      0.2811                 0.1511                 0.4817
 IR Inten    --    101.3195                50.7006               109.1963
  Atom  AN      X      Y      Z        X      Y      Z        X      Y      Z
     1  80     0.02  -0.00  -0.00     0.01   0.00  -0.00     0.00  -0.00  -0.00
     2   8    -0.22  -0.08  -0.15    -0.01  -0.01  -0.01    -0.01  -0.00  -0.01
     3   1    -0.08   0.07  -0.09     0.01   0.02   0.00     0.01   0.02  -0.01
     4   1    -0.45   0.02  -0.30    -0.05   0.01  -0.03    -0.04   0.01  -0.02
     5   8    -0.00   0.01   0.01    -0.03   0.05  -0.08     0.09  -0.21  -0.02
     6   1    -0.01  -0.05  -0.03    -0.21   0.37   0.29     0.11  -0.26  -0.06
     7   1    -0.04   0.05  -0.02     0.20  -0.39   0.14     0.10  -0.21  -0.02
     8   8     0.01   0.03  -0.07     0.00   0.00  -0.00     0.01  -0.00   0.00
     9   1    -0.08  -0.05   0.16    -0.01   0.00  -0.01    -0.03  -0.02   0.03
    10   1    -0.19   0.24  -0.11     0.01  -0.01   0.00    -0.07   0.02  -0.02
    11   8    -0.07   0.03   0.27     0.00   0.00   0.02    -0.01   0.01   0.02
    12   1    -0.04   0.23   0.36     0.02   0.01   0.02    -0.00   0.05   0.03
    13   1     0.09  -0.09   0.40     0.02  -0.01   0.04     0.01  -0.01   0.03
    14   8     0.04  -0.01  -0.04    -0.00  -0.05   0.17     0.04   0.37   0.10
    15   1     0.03  -0.03  -0.00     0.00  -0.02  -0.14     0.04   0.48   0.04
    16   1     0.03  -0.02   0.00     0.02   0.07  -0.10     0.07   0.43   0.20
    17   8     0.01   0.00   0.02    -0.03   0.01  -0.08    -0.14  -0.16  -0.09
    18   1     0.04   0.07   0.01    -0.30  -0.38   0.07    -0.18  -0.23  -0.07
    19   1    -0.02  -0.02  -0.03     0.25   0.21   0.30    -0.12  -0.15  -0.06
                     22                     23                     24
                      A                      A                      A
 Frequencies --    487.4358               543.4580               588.3168
 Red. masses --      1.4086                 1.2013                 3.4634
 Frc consts  --      0.1972                 0.2090                 0.7063
 IR Inten    --     58.1807               287.2840               168.2079
  Atom  AN      X      Y      Z        X      Y      Z        X      Y      Z
     1  80    -0.00   0.00  -0.00     0.00   0.00  -0.00     0.00  -0.00   0.00
     2   8    -0.02   0.07  -0.01    -0.01   0.01   0.01    -0.09  -0.04  -0.09
     3   1    -0.29  -0.22  -0.28    -0.05  -0.04  -0.09    -0.04   0.02   0.22
     4   1     0.31  -0.09   0.12     0.06  -0.04  -0.10    -0.19   0.02   0.09
     5   8     0.00  -0.00   0.00     0.01   0.01   0.00     0.01  -0.05  -0.00
     6   1    -0.00  -0.00   0.01    -0.05  -0.05   0.00     0.09   0.00  -0.03
     7   1     0.00  -0.01   0.01    -0.05  -0.05  -0.00     0.07   0.06  -0.01
     8   8     0.01  -0.00  -0.00    -0.09  -0.03  -0.02    -0.03  -0.02  -0.00
     9   1    -0.09  -0.02  -0.02     0.65   0.10   0.16     0.24   0.03   0.07
    10   1    -0.10  -0.01  -0.03     0.65   0.13   0.16     0.26   0.06   0.07
    11   8     0.07  -0.13  -0.01    -0.03  -0.02   0.01     0.27   0.05  -0.02
    12   1    -0.12   0.69   0.33    -0.05   0.09   0.06     0.27  -0.08  -0.07
    13   1    -0.02   0.10   0.12    -0.06   0.01   0.01     0.32   0.07   0.04
    14   8    -0.01  -0.00   0.01     0.04   0.00  -0.00    -0.24   0.01   0.05
    15   1    -0.01  -0.00   0.01     0.04  -0.01  -0.00    -0.18   0.04   0.02
    16   1    -0.01  -0.00  -0.01     0.04  -0.01   0.02    -0.23   0.02   0.03
    17   8    -0.00   0.00  -0.00    -0.01  -0.01  -0.01    -0.00   0.07   0.05
    18   1     0.00  -0.01  -0.01     0.01  -0.04  -0.03     0.22  -0.26  -0.17
    19   1     0.01  -0.01  -0.01    -0.01  -0.02  -0.01     0.19  -0.31  -0.17
                     25                     26                     27
                      A                      A                      A
 Frequencies --    598.8759               628.0292               660.5007
 Red. masses --      1.1875                 1.8120                 1.7514
 Frc consts  --      0.2509                 0.4211                 0.4502
 IR Inten    --    698.0765               234.7188               171.8714
  Atom  AN      X      Y      Z        X      Y      Z        X      Y      Z
     1  80     0.00  -0.00  -0.00    -0.02  -0.00   0.01    -0.01  -0.00   0.01
     2   8    -0.01  -0.00  -0.01    -0.03  -0.02  -0.06     0.00  -0.00  -0.06
     3   1    -0.01   0.00  -0.01    -0.03   0.01   0.24    -0.03   0.00   0.39
     4   1    -0.02  -0.00  -0.01    -0.08   0.03   0.20    -0.00   0.04   0.41
     5   8    -0.05  -0.06   0.00     0.04   0.06  -0.00    -0.05  -0.01  -0.00
     6   1     0.31   0.39  -0.03    -0.27  -0.34   0.02     0.20   0.36   0.02
     7   1     0.33   0.41  -0.00    -0.29  -0.32  -0.00     0.25   0.28   0.02
     8   8    -0.01  -0.01  -0.00    -0.00  -0.00  -0.00    -0.00   0.00  -0.00
     9   1     0.09   0.01   0.03     0.01  -0.01   0.03    -0.01  -0.00   0.01
    10   1     0.09   0.03   0.02     0.01   0.03  -0.00     0.00   0.01  -0.00
    11   8     0.03   0.00  -0.00     0.15   0.02  -0.02     0.04  -0.00   0.00
    12   1     0.03   0.02   0.01     0.12  -0.01  -0.04    -0.02   0.05   0.02
    13   1     0.03   0.00   0.01     0.19   0.04  -0.01     0.10   0.01  -0.06
    14   8    -0.02   0.01   0.01     0.10  -0.00  -0.02     0.18  -0.01  -0.03
    15   1    -0.10  -0.02   0.01     0.12   0.01  -0.02     0.10  -0.06   0.00
    16   1     0.05  -0.04  -0.02     0.12  -0.02  -0.03     0.11   0.02   0.03
    17   8     0.04  -0.05  -0.03     0.03  -0.06  -0.03    -0.05   0.02   0.00
    18   1    -0.19   0.36   0.20    -0.20   0.34   0.19     0.11  -0.34  -0.16
    19   1    -0.21   0.38   0.19    -0.21   0.34   0.17     0.17  -0.29  -0.12
                     28                     29                     30
                      A                      A                      A
 Frequencies --    677.1312               971.9699              1163.4330
 Red. masses --      1.4982                 1.0559                 1.0496
 Frc consts  --      0.4047                 0.5877                 0.8370
 IR Inten    --    267.6301                51.1666               102.8259
  Atom  AN      X      Y      Z        X      Y      Z        X      Y      Z
     1  80     0.01   0.00  -0.01     0.00  -0.00   0.00     0.00   0.00   0.00
     2   8     0.04   0.01  -0.07    -0.00   0.01  -0.03    -0.00   0.00  -0.00
     3   1    -0.03  -0.01   0.60    -0.07  -0.04   0.03     0.00   0.00  -0.00
     4   1     0.08   0.06   0.67     0.07  -0.01   0.13     0.00   0.00   0.00
     5   8     0.02  -0.01   0.00    -0.00   0.00  -0.00    -0.01  -0.01  -0.02
     6   1    -0.04  -0.10  -0.01    -0.00  -0.00   0.00    -0.01   0.12   0.06
     7   1    -0.06  -0.07  -0.01     0.00  -0.00   0.00     0.07  -0.10   0.03
     8   8    -0.01  -0.00  -0.01    -0.00  -0.00   0.00    -0.00  -0.00  -0.00
     9   1     0.06   0.01   0.02     0.01   0.00  -0.00     0.01   0.00   0.01
    10   1     0.07   0.02   0.01     0.00  -0.01   0.00     0.01   0.00   0.00
    11   8    -0.11  -0.03   0.04    -0.04   0.01  -0.03     0.00  -0.00   0.00
    12   1    -0.21   0.11   0.09     0.85   0.05   0.06    -0.00  -0.00  -0.00
    13   1    -0.01  -0.03  -0.11    -0.38  -0.21   0.25     0.00  -0.01  -0.00
    14   8    -0.09   0.01   0.02    -0.00   0.00  -0.00    -0.00  -0.03  -0.01
    15   1    -0.06   0.02   0.00     0.00   0.00  -0.00     0.47   0.15   0.46
    16   1    -0.06  -0.01  -0.01     0.00  -0.00  -0.01    -0.40   0.46  -0.32
    17   8     0.02  -0.00   0.00    -0.00  -0.00  -0.00     0.01  -0.02   0.02
    18   1    -0.03   0.11   0.05    -0.00   0.00  -0.00     0.04   0.13   0.01
    19   1    -0.05   0.09   0.04     0.00  -0.00  -0.00    -0.09  -0.05  -0.08
                     31                     32                     33
                      A                      A                      A
 Frequencies --   1288.7926              1333.0103              1409.8820
 Red. masses --      1.0370                 1.0643                 1.0705
 Frc consts  --      1.0149                 1.1142                 1.2537
 IR Inten    --      0.6856               281.8308               381.9683
  Atom  AN      X      Y      Z        X      Y      Z        X      Y      Z
     1  80     0.00   0.00   0.00     0.00  -0.00   0.00     0.00   0.00   0.00
     2   8    -0.00   0.00   0.00    -0.00   0.00  -0.00     0.03  -0.03  -0.01
     3   1    -0.00  -0.00  -0.00    -0.00   0.00   0.00     0.06   0.03   0.17
     4   1     0.00  -0.00   0.00     0.00  -0.00   0.00    -0.23   0.09  -0.07
     5   8    -0.01  -0.01   0.02     0.01   0.00  -0.03     0.00  -0.00  -0.00
     6   1     0.05  -0.06  -0.06    -0.05   0.09   0.08     0.00   0.00   0.00
     7   1     0.01   0.10  -0.01     0.01  -0.13   0.02     0.00   0.00  -0.00
     8   8    -0.00   0.00  -0.00     0.00   0.00  -0.00    -0.00  -0.00  -0.00
     9   1     0.00   0.00   0.00    -0.00  -0.00   0.00    -0.00  -0.00   0.01
    10   1    -0.00   0.00  -0.00    -0.01   0.00  -0.00     0.01   0.01   0.00
    11   8     0.00  -0.00  -0.00     0.00   0.00   0.00    -0.01  -0.03  -0.04
    12   1     0.00   0.00   0.00     0.00  -0.00   0.00    -0.06   0.02  -0.03
    13   1     0.00  -0.01  -0.00    -0.01  -0.01  -0.00    -0.24   0.75   0.53
    14   8    -0.00  -0.03  -0.01     0.00   0.01  -0.05     0.00   0.00  -0.00
    15   1     0.46   0.19  -0.49    -0.18  -0.17   0.63     0.01  -0.01  -0.00
    16   1    -0.43   0.02   0.53    -0.20  -0.11   0.64    -0.00   0.01   0.01
    17   8     0.01   0.00  -0.02     0.01   0.01  -0.02     0.00   0.00   0.00
    18   1    -0.07  -0.07   0.02    -0.08  -0.11   0.02    -0.00   0.00   0.00
    19   1     0.01   0.08   0.06     0.04   0.09   0.08    -0.00   0.00   0.00
                     34                     35                     36
                      A                      A                      A
 Frequencies --   1530.8317              1717.2855              1724.5617
 Red. masses --      1.1241                 1.0811                 1.0879
 Frc consts  --      1.5521                 1.8785                 1.9063
 IR Inten    --   3065.4777               147.2509               207.4521
[...]
 00024399,-0.09745604,-0.14668393,0.02180658,0.00878021,0.04519460,-0.0
 1064970,0.08719484,-0.00099554,-0.00000185,0.00046825,-0.09030055,-0.4
 1901265,0.09507049,-0.01732101,-0.02563817,0.00951629,0.11083333,0.447
 44872,-0.00030750,-0.00012896,0.00048472,0.01270354,0.10606024,-0.0435
 9454,0.00620260,0.00927951,0.00484629,-0.01657154,-0.10633715,0.035197
 44,0.00440800,-0.00085654,-0.00078170,-0.00053860,-0.00020943,-0.00032
 095,0.00010385,-0.00003973,0.00004630,0.00012260,0.00005663,-0.0000008
 1,0.36062512,-0.00738033,-0.00404406,0.00083021,0.00069093,0.00071124,
 0.00063510,-0.00010933,-0.00006206,-0.00003554,0.00010688,-0.00026437,
 -0.00004474,-0.17974419,0.16555984,-0.00047505,0.00080224,-0.00138195,
 0.00003353,0.00003676,0.00017091,0.00001220,0.00000976,-0.00005847,0.0
 0000846,-0.00000335,-0.00008051,0.05731904,0.06517314,0.68296242,-0.00
 013345,0.00058125,-0.00067228,0.00011114,0.00000563,0.00008791,-0.0000
 2151,0.00002305,-0.00002609,-0.00004836,0.00000983,-0.00001864,-0.2126
 9956,0.07394687,-0.23672215,0.20315129,0.00062292,0.00019410,0.0001833
 8,-0.00006200,-0.00011040,-0.00006050,0.00000748,0.00002085,-0.0000037
 4,-0.00003376,0.00005041,-0.00000141,0.07574893,-0.04667359,0.07052321
 ,-0.07411685,0.03669947,-0.00052521,-0.00020861,0.00058797,0.00003799,
 0.00001755,-0.00003712,-0.00001338,-0.00000376,0.00002387,-0.00000721,
 -0.00000722,0.00003725,-0.17959132,0.04811839,-0.30282037,0.21572810,-
 0.05984473,0.33366120,0.00026549,0.00061892,0.00061162,0.00007618,-0.0
 0007204,-0.00006889,-0.00002903,0.00002482,0.00001025,-0.00007474,0.00
 002956,0.00004092,-0.12494284,0.09016022,0.18177346,0.01027657,-0.0070
 7748,-0.03535680,0.11439064,0.00054892,0.00032314,0.00003784,-0.000088
 91,-0.00014338,-0.00009811,0.00001325,0.00002531,-0.00000005,-0.000038
 87,0.00006320,0.00001602,0.07703686,-0.07830973,-0.13594130,0.00154203
 ,0.00935472,0.01100687,-0.08286333,0.06979529,0.00066659,-0.00003319,0
 .00045439,-0.00009269,-0.00006882,-0.00015810,0.00000525,-0.00000571,0
 .00004194,0.00000254,0.00001517,0.00004524,0.12595978,-0.11529185,-0.3
 5814252,0.02452525,-0.01766520,-0.03366932,-0.15133041,0.13306519,0.38
 903604,-0.00956252,0.00085867,0.00011298,0.00092300,-0.00121850,0.0021
 1650,0.00099364,0.00112395,-0.00099692,-0.00026758,0.00032546,0.000010
 53,-0.00065596,0.00151162,-0.00007609,0.00002096,-0.00013322,0.0001421
 3,0.00000663,-0.00021834,-0.00008668,0.14773541,0.00379912,-0.01058731
 ,0.00346566,-0.00059146,-0.00030559,0.00081465,0.00037329,-0.00016751,
 -0.00032047,0.00006494,0.00010250,-0.00006143,0.00033806,-0.00020390,0
 .00001871,-0.00008312,-0.00002195,-0.00002529,-0.00013733,-0.00002652,
 0.00000744,-0.20225119,0.47448966,-0.00379572,0.00103617,-0.01277894,0
 .00109601,0.00079983,0.00225807,-0.00000372,0.00006952,-0.00075266,0.0
 0006958,-0.00012413,-0.00032561,-0.00052584,0.00091137,0.00025234,0.00
 012207,-0.00004753,-0.00002121,-0.00008310,-0.00003391,-0.00024879,-0.
 14528285,0.06359337,0.51751423,0.00124175,0.00298214,-0.00157318,-0.00
 051881,0.00044159,-0.00046123,-0.00028833,-0.00065094,0.00028059,0.000
 08313,-0.00012528,-0.00003270,0.00010169,-0.00031933,0.00004032,0.0000
 1334,0.00005227,-0.00004064,0.00000629,0.00007155,0.00000629,-0.082742
 92,0.16095283,0.03281374,0.08306595,0.00121930,-0.00063749,0.00012426,
 -0.00008703,0.00038715,-0.00028424,-0.00032620,-0.00030316,0.00024241,
 0.00003296,-0.00008334,-0.00001275,-0.00007277,0.00003581,-0.00002265,
 0.00001441,0.00001403,0.00000993,0.00003443,0.00000483,0.00001057,0.18
 020549,-0.41565289,-0.06143871,-0.18311432,0.42483562,-0.00175102,0.00
 309949,0.00263581,-0.00003977,-0.00025803,-0.00045151,0.00006894,0.000
 16605,0.00025313,-0.00003892,0.00005280,0.00008542,-0.00001635,0.00003
 868,-0.00004227,-0.00000912,0.00000376,0.00002446,0.00001562,-0.000006
 52,0.00002720,0.00935932,-0.00220188,-0.05307301,-0.03231048,0.0498960
 9,0.06019695,0.00288833,-0.00019102,-0.00256076,-0.00015227,0.00017331
 ,-0.00082282,-0.00023455,-0.00018068,0.00047457,0.00002583,-0.00009959
 ,0.00007342,0.00008378,-0.00034337,0.00016128,0.00003135,0.00005834,-0
 .00007065,-0.00004776,0.00013939,-0.00007466,-0.05637086,0.03531200,0.
 11696604,0.00030733,0.00277883,0.02448286,0.05408899,-0.00088208,0.002
 62517,0.00129880,-0.00006435,-0.00031357,-0.00091710,-0.00012251,0.000
 09514,0.00027600,-0.00011792,0.00002579,0.00018282,-0.00003965,-0.0002
 4307,-0.00015888,0.00000600,0.00003546,0.00003103,0.00014954,0.0000320
 2,0.00010109,0.01916723,-0.04872388,-0.00688912,0.02003311,-0.00858807
 ,-0.05068082,-0.03806236,0.05564385,0.00085523,0.00063459,-0.00253357,
 -0.00010733,-0.00012009,-0.00007239,0.00006905,0.00007540,0.00002799,0
 .00000332,0.00002937,0.00006002,0.00017140,-0.00033849,-0.00000662,-0.
 00000373,0.00002565,-0.00001571,-0.00000086,0.00003896,0.00005934,0.13
 786092,-0.06711977,-0.44751910,0.00079829,0.01124512,-0.00878071,-0.13
 961442,0.05521644,0.45877049,-0.14483427,-0.01011781,0.02589438,-0.040
 60446,-0.03162976,-0.03884377,0.00029844,-0.00493975,0.00024822,-0.004
 47958,0.00325292,-0.00416530,-0.00117920,0.00197865,0.00002477,0.00017
 365,-0.00020295,0.00015103,-0.00000417,-0.00029725,-0.00025690,0.00419
 356,-0.00149739,0.00399664,-0.00137207,-0.00051209,0.00089720,-0.00019
 608,-0.00077855,-0.00004650,0.29296723,-0.02869524,-0.01706854,0.00406
 977,-0.03123577,-0.00285844,-0.02303616,-0.00170509,-0.00618682,-0.002
 29378,0.00014077,0.00213050,-0.00061947,-0.00019899,0.00127744,-0.0001
 0202,-0.00007718,-0.00017413,0.00007761,-0.00011540,-0.00021029,-0.000
 06878,0.00024094,0.00053398,0.00336169,-0.00000023,0.00014660,-0.00088
 119,0.00003857,-0.00093341,0.00011879,0.10438248,0.12675344,0.05468613
 ,0.00257250,-0.04498856,-0.03399969,-0.02114948,-0.01084902,-0.0012575
 0,-0.00356005,-0.00171406,-0.00439114,0.00059384,-0.00422940,-0.000058
 34,0.00030053,0.00012549,0.00009705,-0.00002574,-0.00009768,-0.0000863
 7,-0.00008567,-0.00009607,0.00143242,0.00255508,-0.00356739,-0.0004138
 1,-0.00029254,-0.00091805,-0.00060483,0.00087476,-0.00041799,-0.001807
 13,-0.08855947,0.59013342,-0.00740453,-0.00471111,0.01898165,-0.005346
 50,-0.00388741,-0.00037536,-0.00020833,-0.00021715,-0.00091619,-0.0006
 1448,-0.00060090,-0.00135186,0.00008673,-0.00001223,-0.00011536,-0.000
 08414,0.00000121,0.00006080,0.00000171,0.00001269,0.00003935,-0.000001
 82,-0.00039023,0.00069682,0.00001373,-0.00011458,0.00018828,0.00016166
 ,-0.00020122,0.00012548,-0.04596958,-0.02335249,0.01563591,0.04579954,
 0.00151500,0.00167396,0.00130384,-0.00254562,-0.00278337,-0.00035506,-
 0.00031390,0.00032850,0.00018979,-0.00120147,-0.00025009,-0.00102686,-
 0.00006151,-0.00026836,0.00007445,0.00008317,0.00008429,-0.00003182,0.
 00003761,0.00006459,-0.00001786,-0.00033467,0.00000617,0.00069062,0.00
 002715,0.00015861,0.00008439,0.00007534,-0.00015567,0.00008223,-0.0204
 9721,-0.05254417,0.13103331,0.02060422,0.04471376,-0.00022229,0.003765
 55,-0.00306371,-0.00073873,-0.00194555,0.00139708,-0.00012550,-0.00001
 686,-0.00010988,-0.00086890,-0.00020892,-0.00079288,-0.00031904,0.0003
 9007,-0.00008622,0.00002116,-0.00001998,0.00009356,0.00005921,-0.00003
 777,-0.00001839,0.00041642,-0.00026605,0.00041566,-0.00005632,0.000016
 85,-0.00001601,-0.00003895,0.00003670,0.00004757,0.01059908,0.10203134
 ,-0.45243770,-0.01309559,-0.11609521,0.46854867,-0.01834868,-0.0073552
 1,0.00731966,-0.00776277,0.02255133,0.01802690,-0.00595995,0.00118804,
 -0.00757549,0.00680119,-0.00517459,0.00339970,0.00094540,-0.00140698,-
 0.00014027,-0.00019237,0.00014968,-0.00004297,-0.00004870,0.00020910,0
 .00021326,-0.00233261,0.00062068,-0.00300331,0.00101816,0.00018887,0.0
 0026614,0.00063554,0.00065382,0.00018414,-0.06744759,-0.02094229,-0.02
 510859,0.01316954,0.00245435,0.00528639,0.07819103,-0.00331240,-0.0001
 5894,0.00617267,0.01704734,-0.03479390,0.01584286,0.00943885,0.0134353
 8,0.00713747,-0.00740880,-0.00476993,-0.00735901,0.00043651,-0.0011342
 5,-0.00007216,-0.00005296,0.00016152,-0.00002920,0.00006825,0.00020436
 ,0.00012294,0.00029672,-0.00026844,-0.00222906,-0.00023012,-0.00041059
 ,0.00073998,0.00034382,0.00076164,0.00009138,-0.03537016,-0.05506487,-
 0.02499233,0.01270882,0.00841954,0.01324590,0.00511291,0.07214214,0.00
 050386,0.00031282,0.01619991,0.00395930,0.01274939,-0.01749739,0.00192
 585,0.00343931,0.00135277,0.01083258,0.00106408,0.00827019,0.00068841,
 -0.00129276,-0.00017390,-0.00014731,0.00013149,-0.00000421,0.00005922,
 0.00019799,0.00021981,-0.00379422,-0.00103963,-0.00272917,0.00097683,0
 .00054216,0.00034189,0.00078952,0.00086553,-0.00002615,-0.00062883,0.0
 0482475,-0.07815205,-0.01840964,-0.01585026,-0.01476141,0.00231656,-0.
 00714707,0.08937357,-0.16429132,-0.02087682,0.05857742,-0.00199223,-0.
 00132497,-0.00150001,0.00033943,-0.00008083,0.00014141,0.00007686,0.00
 041375,0.00004295,-0.01145404,0.03449859,-0.00191022,-0.00033623,0.001
 77676,0.00325288,-0.00152594,0.00094814,-0.00347203,-0.00407132,0.0035
 1887,-0.00427301,-0.00024904,-0.00043326,-0.00099807,-0.00049690,0.000
 39697,0.00043680,0.00330116,0.00008975,-0.00495277,0.00083993,0.000335
 74,-0.00178211,0.00409184,0.00263476,0.00315316,0.39074686,-0.01274933
 ,-0.03404070,0.00206576,-0.00026687,0.00013964,-0.00019782,0.00001868,
 -0.00017083,0.00015465,0.00022310,-0.00008309,-0.00001825,0.03337121,-
 0.03677031,0.00479967,0.00166379,-0.00579527,-0.00433493,0.00176805,-0
 .00339589,0.00402011,0.00258111,0.00180748,0.00156925,-0.00097488,-0.0
 0005417,-0.00025535,-0.00044112,-0.00106896,-0.00050316,-0.00287429,0.
 00635762,0.00130009,0.00027484,0.00026544,-0.00068936,0.00085596,0.000
 46487,0.00017238,-0.00610487,0.45434487,0.03426301,0.00254082,-0.02724
 370,0.00046142,0.00047272,0.00089250,0.00003942,0.00009665,-0.00015341
 ,0.00009895,-0.00007407,-0.00007117,-0.00081567,0.00283403,0.01272498,
 0.00108730,-0.00206567,-0.00049535,-0.00162859,0.00278548,-0.00201088,
 -0.00177734,0.00041607,0.00094444,0.00014556,-0.00016854,-0.00039444,0
 .00147011,-0.00038134,0.00054035,0.00231721,0.00091882,0.00696907,-0.0
 0152262,-0.00006752,0.00038911,-0.00062050,-0.00122482,-0.00189735,0.0
 1305331,0.03819184,0.08865463,-0.02063669,0.00820877,0.00106389,0.0010
 0182,0.00067251,0.00076776,-0.00017004,0.00001299,-0.00008983,-0.00004
 812,-0.00022014,-0.00002484,-0.01039093,-0.01718986,0.00095891,-0.0002
 0055,0.00216692,-0.00377624,0.00156537,0.00247982,0.00388149,0.0011256
 9,-0.00025401,0.00076610,-0.00031130,0.00006920,-0.00006903,-0.0003723
 3,-0.00002863,-0.00038800,0.00363641,0.00034248,0.00026110,-0.00022369
 ,-0.00018331,0.00063079,-0.00189185,-0.00123741,-0.00155725,-0.1146352
 0,0.07408627,-0.01436006,0.12329327,0.00625038,0.00991587,0.00148824,-
 0.00144538,-0.00119873,-0.00124855,0.00023792,0.00004492,0.00010488,-0
 .00007290,0.00040156,0.00007868,-0.00649141,-0.00078731,-0.00632763,-0
 .00396932,0.00713233,0.00526921,-0.00287069,0.00249642,-0.00400114,-0.
 00280394,0.00066097,-0.00219805,0.00046221,-0.00009970,-0.00007369,0.0
 0038241,0.00043822,0.00059707,-0.00412692,-0.00238732,-0.00056495,0.00
 004496,0.00028327,-0.00079771,0.00272710,0.00201727,0.00250665,0.05827
 004,-0.16309693,0.00642290,-0.05630993,0.15858058,0.00698626,-0.004400
 20,0.00074624,0.00010777,0.00002578,-0.00002158,-0.00002214,0.00000368
 ,0.00003430,-0.00001300,-0.00001679,0.00004824,-0.00087596,-0.00305320
 ,-0.03294558,-0.00381188,0.00839307,0.00244045,0.00612941,-0.01063114,
 0.00421655,-0.00012171,0.00006565,-0.00018579,-0.00003217,0.00003703,-
 0.00002293,-0.00013941,0.00020698,0.00002844,0.00025365,0.00073233,0.0
 0037366,0.00006590,-0.00009528,0.00007822,-0.00008687,-0.00000626,-0.0
 0015437,-0.02386129,0.02803663,-0.03657436,0.01030613,-0.00771237,0.05
 935950,-0.01773776,-0.01199263,-0.00093342,0.00078001,0.00041147,0.000
 51524,-0.00014165,0.00004598,-0.00004775,-0.00008257,-0.00011875,-0.00
 000255,-0.00633965,0.00474424,-0.00126860,-0.00013130,0.00156112,0.000
 16633,0.00015587,0.00072881,-0.00002726,0.00129683,-0.00005448,0.00081
 064,-0.00036667,0.00020801,-0.00008415,-0.00029939,-0.00000380,-0.0004
 0598,0.00231059,0.00118603,0.00055949,-0.00023455,0.00002271,0.0004441
 3,-0.00139257,-0.00075379,-0.00108393,-0.09626665,-0.06123348,-0.02507
 694,0.02359040,0.00950733,0.00684758,0.10688921,-0.01201265,0.00905816
 ,0.00036177,0.00162563,0.00073423,0.00118082,-0.00025433,0.00018753,-0
 .00016205,-0.00021717,-0.00019572,-0.00001356,-0.00193985,0.00327515,0
 .00068359,0.00049488,-0.00037482,0.00024536,0.00041939,-0.00003895,-0.
 00030879,0.00110478,-0.00273065,0.00150459,0.00069371,0.00044732,0.000
 51069,0.00006079,0.00061375,-0.00014855,0.00507732,0.00017544,-0.00010
 415,-0.00020681,0.00004181,0.00104306,-0.00295633,-0.00162930,-0.00240
 112,-0.04358063,-0.16791026,-0.03455213,-0.00490191,-0.01676273,-0.010
 09984,0.04635700,0.16653177,0.00412383,0.00683043,0.00206093,0.0004096
 3,0.00020888,0.00024459,-0.00008127,0.00002651,-0.00000938,-0.00005823
 ,-0.00005849,0.00001352,-0.00171571,0.00142430,-0.00068420,-0.00030109
 ,0.00075299,0.00035354,-0.00011628,-0.00026531,0.00020493,0.00104988,0
 .00002323,-0.00000638,-0.00022351,0.00013874,0.00015045,-0.00056371,-0
 .00005127,-0.00028063,0.00191693,-0.00068593,-0.00017649,-0.00002356,0
 .00012498,0.00043425,-0.00070922,-0.00044820,-0.00058565,-0.02791801,-
 0.05687150,-0.04812772,0.00427629,0.00673607,0.00317493,0.01690575,0.0
 2971592,0.06593436,0.00305126,0.00177377,-0.00060470,-0.00041110,-0.00
 028886,-0.00029328,0.00009111,0.00002298,0.00003266,0.00003214,0.00009
 545,0.00001824,0.00235210,-0.00079438,0.00027077,-0.00019529,-0.000884
 86,0.00002209,-0.00029675,-0.00052311,-0.00004386,-0.00071732,-0.00034
 057,-0.00045595,0.00046558,0.00009305,0.00022657,0.00013307,0.00016538
 ,0.00026164,-0.00088316,-0.00043146,-0.00010674,0.00003934,0.00011552,
 -0.00020030,0.00077879,0.00048757,0.00058746,-0.00296242,-0.02785457,-
 0.00632402,-0.00575199,0.00089612,-0.00123401,-0.01315669,0.00493400,0
 .00013440,0.30646955,0.00854779,-0.00355452,-0.00120442,-0.00080765,-0
 .00031907,-0.00056589,0.00012505,-0.00012477,0.00007419,0.00012155,0.0
 0007262,-0.00000096,0.00147388,-0.00290322,0.00020581,0.00005166,0.000
 39135,-0.00032706,0.00005081,0.00032885,0.00030590,-0.00074185,0.00144
 306,-0.00066300,-0.00036519,-0.00038454,-0.00034745,0.00010215,-0.0003
 6305,0.00008988,-0.00235331,0.00004702,0.00002268,0.00013393,-0.000103
 10,-0.00054221,0.00146134,0.00076935,0.00118541,-0.02890915,-0.0415516
 4,-0.01408643,-0.00556898,0.00310035,-0.00070237,0.01502720,-0.0009643
 4,0.00963770,0.18535310,0.25588815,0.00127445,-0.00114892,-0.00200377,
 -0.00013486,-0.00005484,0.00002168,0.00004353,-0.00000441,-0.00004416,
 0.00002960,0.00001407,-0.00003883,0.00060189,-0.00087976,0.00058566,0.
 00013889,-0.00026275,-0.00037033,0.00002375,0.00023372,-0.00009945,-0.
 00080098,-0.00020803,0.00011335,0.00035358,-0.00003268,-0.00014738,0.0
 0043234,0.00012857,0.00017006,-0.00057233,0.00020341,0.00026512,-0.000
 04894,-0.00013280,-0.00023313,0.00018580,0.00010314,0.00008550,-0.0074
 2948,-0.01618557,0.00874404,-0.00229508,-0.00010419,-0.00097590,0.0037
 3057,0.01306276,-0.02976738,0.09340209,-0.14113814,0.64628389,0.000033
 73,-0.00046013,-0.00072237,0.00009521,0.00008538,0.00010202,-0.0000184
 7,-0.00001310,-0.00002274,0.00000028,-0.00003153,-0.00001644,-0.000294
 43,-0.00017367,0.00007168,0.00017095,0.00018400,-0.00007317,0.00009794
 ,0.00013814,0.00004243,-0.00004127,0.00004208,0.00011383,-0.00003013,-
 0.00004885,-0.00008981,0.00003883,-0.00003185,-0.00002142,0.00013066,0
 .00020288,0.00016620,-0.00004679,-0.00010212,-0.00002717,-0.00020101,-
 0.00013863,-0.00017204,-0.00006113,-0.00115816,0.00061887,0.00014172,-
 0.00038774,-0.00026560,-0.00017179,0.00363086,-0.00210647,-0.17903191,
 -0.04430722,-0.23533027,0.16938010,-0.00060434,0.00013912,-0.00045792,
 0.00007928,0.00000891,0.00004493,-0.00001161,0.00002632,-0.00000619,-0
 .00001860,0.00000517,0.00000185,0.00074814,0.00033447,0.00041643,-0.00
 002905,-0.00068983,-0.00009517,-0.00011738,-0.00021306,-0.00016948,0.0
 0005730,-0.00015451,0.00004842,0.00003111,0.00006041,0.00005392,-0.000
 01226,0.00004055,0.00001157,0.00018176,0.00000728,0.00004117,-0.000048
 85,0.00003629,0.00002018,-0.00013272,-0.00005308,-0.00010164,-0.001551
 90,-0.00716653,0.00089310,-0.00143641,-0.00045997,-0.00093587,-0.00221
 771,0.00995170,-0.00745547,-0.05617065,-0.04413075,-0.04813557,0.04832
 615,0.03502537,-0.00065087,0.00003189,0.00060087,0.00005444,0.00002039
 ,-0.00001571,-0.00001684,0.00000120,0.00002276,-0.00001274,-0.00000471
 ,0.00002152,0.00013748,0.00046963,-0.00020793,-0.00009440,-0.00012496,
 0.00022698,-0.00006795,-0.00019934,0.00001438,0.00023573,0.00005514,-0
 .00002497,-0.00011572,-0.00000320,0.00003530,-0.00011715,-0.00002759,-
 0.00004056,0.00021964,-0.00003194,-0.00013177,0.00003608,0.00005067,0.
 00011401,-0.00007527,-0.00004015,-0.00003005,0.00240645,0.00333738,0.0
 0064394,-0.00012391,-0.00037795,0.00007994,-0.00365695,-0.00412549,-0.
 00032815,-0.18297261,-0.01831250,-0.33834707,0.21523121,0.02636390,0.3
 6852148,0.00053923,-0.00083559,0.00064535,0.00003354,0.00007175,-0.000
 00739,-0.00002674,-0.00003992,0.00001497,0.00000223,-0.00002905,0.0000
 0030,-0.00033407,-0.00016432,0.00003333,0.00009352,0.00018149,-0.00006
 375,0.00012722,0.00016111,0.00004226,0.00046848,0.00057792,-0.00002796
 ,-0.00043768,-0.00013545,-0.00009822,-0.00022454,-0.00023913,-0.000178
 06,-0.00004153,0.00013025,-0.00005140,0.00002225,-0.00003102,0.0000177
 2,-0.00005339,-0.00007129,0.00000045,-0.00105366,-0.00118546,-0.001429
 42,0.00027801,-0.00030026,-0.00023267,0.00129836,0.00167132,0.00500036
 ,-0.11000633,-0.12939511,0.14639542,0.00980752,0.01292774,-0.03041662,
 0.09950757,-0.00067072,0.00022745,-0.00007583,0.00012115,0.00002781,0.
 00006829,-0.00002059,0.00002934,-0.00000745,-0.00002519,-0.00000124,0.
 00000542,0.00044386,0.00047028,-0.00011578,-0.00009411,-0.00029855,0.0
 0013183,-0.00010797,-0.00035490,-0.00001759,0.00022844,-0.00020067,0.0
 0003867,0.00003262,0.00012357,0.00005908,-0.00013454,0.00007809,-0.000
 02637,0.00032432,-0.00000133,0.00004041,-0.00003770,0.00002853,0.00006
 995,-0.00020507,-0.00009276,-0.00015948,-0.00002093,-0.00227534,-0.002
 95191,-0.00070838,-0.00027907,0.00015215,-0.00342526,-0.00041010,0.010
 21645,-0.10664847,-0.16764175,0.19454198,-0.00575649,0.00723214,-0.007
 08237,0.11670504,0.16333851,0.00061357,-0.00013514,0.00044651,-0.00007
 488,-0.00003880,-0.00011753,0.00000059,-0.00001180,0.00003843,0.000003
 73,0.00001047,0.00002312,0.00009738,-0.00018912,-0.00019124,-0.0000010
 2,0.00010866,0.00008201,0.00001579,-0.00008295,0.00012370,0.00019996,0
 .00022755,-0.00026507,-0.00015544,-0.00000785,0.00009569,-0.00024278,-
 0.00011261,-0.00001083,-0.00019800,-0.00005976,-0.00009052,0.00002884,
 0.00003839,0.00000120,0.00016395,0.00009190,0.00016805,-0.00296740,-0.
 00459182,-0.00353469,-0.00022822,0.00020253,0.00030004,0.00260779,0.00
 360712,0.00739449,0.09727954,0.16636885,-0.28424192,0.02250128,0.02946
 182,-0.03115497,-0.11964467,-0.19488745,0.31093352\\-0.00870929,0.0069
 0467,-0.01218477,-0.00976429,-0.00214231,0.01407751,-0.00106972,0.0087
 0329,-0.00864071,0.00465220,-0.00991542,-0.00417193,0.01119205,0.00412
 584,-0.00002937,-0.00168158,-0.00274254,0.01138237,-0.00477148,-0.0038
 8296,-0.01054681,0.00805095,0.00188460,0.00333683,-0.00791846,0.006153
 37,0.00827359,0.00317671,-0.00971496,-0.00775412,-0.00097740,-0.016229
 87,0.00153344,-0.00430687,0.00446218,0.00913129,0.00444523,0.00985357,
 -0.00479854,0.01348700,-0.00158960,0.01628939,-0.00508569,0.00210278,-
 0.00852908,-0.00500026,-0.00068460,-0.00874261,0.01156016,-0.00279895,
 -0.00025392,-0.00241354,0.00015059,0.01154398,-0.00486573,0.00536032,-
 0.00991656\\\@


 BLACK HOLES SUCK.
 Job cpu time:       0 days  0 hours 50 minutes 28.5 seconds.
 Elapsed time:       0 days  0 hours  1 minutes 49.2 seconds.
 File lengths (MBytes):  RWF=   2793 Int=      0 D2E=      0 Chk=      3 Scr=      1
 Normal termination of Gaussian 16 at Wed May 11 22:05:55 2022.
