 Entering Gaussian System, Link 0=g16
 Initial command:
 /cm/shared/apps/gaussian/intel/EM64T/SSE4_2-enabled/binary//g16/l1.exe "/scratch/florez/25750/Gau-3457.inp" -scrdir="/scratch/florez/25750/"
 Entering Link 1 = /cm/shared/apps/gaussian/intel/EM64T/SSE4_2-enabled/binary//g16/l1.exe PID=      3460.
  
 Copyright (c) 1988,1990,1992,1993,1995,1998,2003,2009,2016,
            Gaussian, Inc.  All Rights Reserved.
  
 This is part of the Gaussian(R) 16 program.  It is based on
 the Gaussian(R) 09 system (copyright 2009, Gaussian, Inc.),
 the Gaussian(R) 03 system (copyright 2003, Gaussian, Inc.),
 the Gaussian(R) 98 system (copyright 1998, Gaussian, Inc.),
 the Gaussian(R) 94 system (copyright 1995, Gaussian, Inc.),
 the Gaussian 92(TM) system (copyright 1992, Gaussian, Inc.),
 the Gaussian 90(TM) system (copyright 1990, Gaussian, Inc.),
 the Gaussian 88(TM) system (copyright 1988, Gaussian, Inc.),
 the Gaussian 86(TM) system (copyright 1986, Carnegie Mellon
 University), and the Gaussian 82(TM) system (copyright 1983,
 Carnegie Mellon University). Gaussian is a federally registered
 trademark of Gaussian, Inc.
  
 This software contains proprietary and confidential information,
 including trade secrets, belonging to Gaussian, Inc.
  
 This software is provided under written license and may be
 used, copied, transmitted, or stored only in accord with that
 written license.
  
 The following legend is applicable only to US Government
 contracts under FAR:
  
                    RESTRICTED RIGHTS LEGEND
  
 Use, reproduction and disclosure by the US Government is
 subject to restrictions as set forth in subparagraphs (a)
 and (c) of the Commercial Computer Software - Restricted
 Rights clause in FAR 52.227-19.
  
 Gaussian, Inc.
 340 Quinnipiac St., Bldg. 40, Wallingford CT 06492
  
  
 ---------------------------------------------------------------
 Warning -- This program may not be used in any manner that
 competes with the business of Gaussian, Inc. or will provide
 assistance to any competitor of Gaussian, Inc.  The licensee
 of this program is prohibited from giving any competitor of
 Gaussian, Inc. access to this program.  By using this program,
 the user acknowledges that Gaussian, Inc. is engaged in the
 business of creating and licensing software in the field of
 computational chemistry and represents and warrants to the
 licensee that it is not a competitor of Gaussian, Inc. and that
 it will not use this program in any manner prohibited above.
 ---------------------------------------------------------------
  

 Cite this work as:
 Gaussian 16, Revision A.03,
 M. J. Frisch, G. W. Trucks, H. B. Schlegel, G. E. Scuseria, 
 M. A. Robb, J. R. Cheeseman, G. Scalmani, V. Barone, 
 G. A. Petersson, H. Nakatsuji, X. Li, M. Caricato, A. V. Marenich, 
 J. Bloino, B. G. Janesko, R. Gomperts, B. Mennucci, H. P. Hratchian, 
 J. V. Ortiz, A. F. Izmaylov, J. L. Sonnenberg, D. Williams-Young, 
 F. Ding, F. Lipparini, F. Egidi, J. Goings, B. Peng, A. Petrone, 
 T. Henderson, D. Ranasinghe, V. G. Zakrzewski, J. Gao, N. Rega, 
 G. Zheng, W. Liang, M. Hada, M. Ehara, K. Toyota, R. Fukuda, 
 J. Hasegawa, M. Ishida, T. Nakajima, Y. Honda, O. Kitao, H. Nakai, 
 T. Vreven, K. Throssell, J. A. Montgomery, Jr., J. E. Peralta, 
 F. Ogliaro, M. J. Bearpark, J. J. Heyd, E. N. Brothers, K. N. Kudin, 
 V. N. Staroverov, T. A. Keith, R. Kobayashi, J. Normand, 
 K. Raghavachari, A. P. Rendell, J. C. Burant, S. S. Iyengar, 
 J. Tomasi, M. Cossi, J. M. Millam, M. Klene, C. Adamo, R. Cammi, 
 J. W. Ochterski, R. L. Martin, K. Morokuma, O. Farkas, 
 J. B. Foresman, and D. J. Fox, Gaussian, Inc., Wallingford CT, 2016.
 
 ******************************************
 Gaussian 16:  ES64L-G16RevA.03 25-Dec-2016
                11-May-2022 
 ******************************************
 %chk=w6s17.chk
 %nproc=28
 Will use up to   28 processors via shared memory.
 %mem=500gb
 ------------------------
 #p MP2(full) SDDAll freq
 ------------------------
 1/10=4,30=1,38=1/1,3;
 2/12=2,17=6,18=5,40=1/2;
 3/5=17,6=6,11=9,25=1,30=1,71=2,140=1/1,2,3;
 4//1;
 5/5=2,38=5,98=1/2;
 8/6=3,8=1,10=90,19=11/1;
 9/15=3,16=-3/6;
 11/6=1,8=1,15=11,17=11,24=-1,27=1,28=-2,29=300,32=6,42=3/1,2,10;
 10/6=2,21=1/2;
 8/6=4,8=1,10=90,19=11/11,4;
 10/5=1,20=4/2;
 11/12=2,14=11,16=1,28=-2,42=3/2,10,12;
 6/7=2,8=2,9=2,10=2/1;
 7/8=1,10=1,12=2,25=1,44=2/1,2,3,16;
 1/10=4,30=1/3;
 99//99;
 Leave Link    1 at Wed May 11 22:07:45 2022, MaxMem= 67108864000 cpu:               0.7 elap:               0.0
 (Enter /cm/shared/apps/gaussian/intel/EM64T/SSE4_2-enabled/binary//g16/l101.exe)
 ----------------------------------------------------------------------
 file 'w6s17.log' Now we use Def2-QZVPPD, but it was opt at: ---'ZORA-S
 R+SO PBE QZ4P'---
 ----------------------------------------------------------------------
 Symbolic Z-matrix:
 Charge =  2 Multiplicity = 1
 Hg(Fragment=1)       -0.0834   -0.15572  -0.00979 
 O(Fragment=2)        -2.05241   0.17273   1.31237 
 H(Fragment=2)        -2.69571  -0.55906   1.34833 
 H(Fragment=2)        -2.00316   0.53621   2.21565 
 O(Fragment=2)         1.3067   -0.07287   1.80936 
 H(Fragment=2)         1.26111  -0.78779   2.47069 
 H(Fragment=2)         2.268     0.04045   1.55084 
 O(Fragment=2)        -1.21298   1.36867  -1.4321 
 H(Fragment=2)        -1.95597   1.86234  -1.03734 
 H(Fragment=2)        -0.69572   2.01798  -1.9433 
 O(Fragment=2)        -1.44295  -1.8109   -1.02368 
 H(Fragment=2)        -1.17287  -2.74395  -1.10227 
 H(Fragment=2)        -1.83784  -1.56945  -1.88255 
 O(Fragment=2)         3.73027   0.3856    0.68224 
 H(Fragment=2)         4.4711   -0.24403   0.75901 
 H(Fragment=2)         4.12698   1.26017   0.85548 
 O(Fragment=2)         1.82571   0.24766  -1.31744 
 H(Fragment=2)         2.65803   0.27539  -0.77459 
 H(Fragment=2)         2.01148  -0.295    -2.10462 
 
 ITRead=  0  0  0  0  0  0  0  0  0  0  0  0  0  0  0  0  0  0  0
 MicOpt= -1 -1 -1 -1 -1 -1 -1 -1 -1 -1 -1 -1 -1 -1 -1 -1 -1 -1 -1
 NAtoms=     19 NQM=       19 NQMF=       0 NMMI=      0 NMMIF=      0
                NMic=       0 NMicF=      0.
                    Isotopes and Nuclear Properties:
 (Nuclear quadrupole moments (NQMom) in fm**2, nuclear magnetic moments (NMagM)
  in nuclear magnetons)

  Atom         1           2           3           4           5           6           7           8           9          10
 IAtWgt=         202          16           1           1          16           1           1          16           1           1
 AtmWgt= 201.9706000  15.9949146   1.0078250   1.0078250  15.9949146   1.0078250   1.0078250  15.9949146   1.0078250   1.0078250
 NucSpn=           0           0           1           1           0           1           1           0           1           1
 AtZEff=  -0.0000000  -0.0000000  -0.0000000  -0.0000000  -0.0000000  -0.0000000  -0.0000000  -0.0000000  -0.0000000  -0.0000000
 NQMom=    0.0000000   0.0000000   0.0000000   0.0000000   0.0000000   0.0000000   0.0000000   0.0000000   0.0000000   0.0000000
 NMagM=    0.0000000   0.0000000   2.7928460   2.7928460   0.0000000   2.7928460   2.7928460   0.0000000   2.7928460   2.7928460
 AtZNuc=  80.0000000   8.0000000   1.0000000   1.0000000   8.0000000   1.0000000   1.0000000   8.0000000   1.0000000   1.0000000

  Atom        11          12          13          14          15          16          17          18          19
 IAtWgt=          16           1           1          16           1           1          16           1           1
 AtmWgt=  15.9949146   1.0078250   1.0078250  15.9949146   1.0078250   1.0078250  15.9949146   1.0078250   1.0078250
 NucSpn=           0           1           1           0           1           1           0           1           1
 AtZEff=  -0.0000000  -0.0000000  -0.0000000  -0.0000000  -0.0000000  -0.0000000  -0.0000000  -0.0000000  -0.0000000
 NQMom=    0.0000000   0.0000000   0.0000000   0.0000000   0.0000000   0.0000000   0.0000000   0.0000000   0.0000000
 NMagM=    0.0000000   2.7928460   2.7928460   0.0000000   2.7928460   2.7928460   0.0000000   2.7928460   2.7928460
 AtZNuc=   8.0000000   1.0000000   1.0000000   8.0000000   1.0000000   1.0000000   8.0000000   1.0000000   1.0000000
 Leave Link  101 at Wed May 11 22:07:46 2022, MaxMem= 67108864000 cpu:               2.4 elap:               0.1
 (Enter /cm/shared/apps/gaussian/intel/EM64T/SSE4_2-enabled/binary//g16/l103.exe)

 GradGradGradGradGradGradGradGradGradGradGradGradGradGradGradGradGradGrad
 Berny optimization.
 Initialization pass.
 Trust Radius=3.00D-01 FncErr=1.00D-07 GrdErr=1.00D-07 EigMax=2.50D+02 EigMin=1.00D-04
 Number of steps in this run=      2 maximum allowed number of steps=      2.
 GradGradGradGradGradGradGradGradGradGradGradGradGradGradGradGradGradGrad

 Leave Link  103 at Wed May 11 22:07:46 2022, MaxMem= 67108864000 cpu:               0.5 elap:               0.0
 (Enter /cm/shared/apps/gaussian/intel/EM64T/SSE4_2-enabled/binary//g16/l202.exe)
                          Input orientation:                          
 ---------------------------------------------------------------------
 Center     Atomic      Atomic             Coordinates (Angstroms)
 Number     Number       Type             X           Y           Z
 ---------------------------------------------------------------------
      1         80           0       -0.083399   -0.155717   -0.009792
      2          8           0       -2.052407    0.172725    1.312366
      3          1           0       -2.695708   -0.559063    1.348331
      4          1           0       -2.003162    0.536205    2.215647
      5          8           0        1.306701   -0.072873    1.809359
      6          1           0        1.261106   -0.787788    2.470690
      7          1           0        2.268004    0.040450    1.550844
      8          8           0       -1.212976    1.368672   -1.432099
      9          1           0       -1.955971    1.862337   -1.037335
     10          1           0       -0.695723    2.017980   -1.943300
     11          8           0       -1.442947   -1.810896   -1.023676
     12          1           0       -1.172870   -2.743952   -1.102268
     13          1           0       -1.837842   -1.569449   -1.882549
     14          8           0        3.730265    0.385602    0.682236
     15          1           0        4.471100   -0.244033    0.759012
     16          1           0        4.126981    1.260170    0.855483
     17          8           0        1.825711    0.247661   -1.317437
     18          1           0        2.658030    0.275392   -0.774593
     19          1           0        2.011476   -0.294996   -2.104617
 ---------------------------------------------------------------------
                    Distance matrix (angstroms):
                    1          2          3          4          5
     1  Hg   0.000000
     2  O    2.394362   0.000000
     3  H    2.971758   0.975009   0.000000
     4  H    3.019408   0.974915   1.559317   0.000000
     5  O    2.290972   3.404545   4.058104   3.389873   0.000000
     6  H    2.891366   3.639185   4.119270   3.531777   0.974957
     7  H    2.828986   4.329009   5.003885   4.350930   1.001886
     8  O    2.371216   3.109183   3.693974   3.824061   4.351307
     9  H    2.938522   2.895718   3.478763   3.513224   4.742756
    10  H    2.972937   3.980568   4.634212   4.604551   4.739601
    11  O    2.369799   3.124626   2.960222   4.039299   4.313627
    12  H    3.013206   3.887293   3.619145   4.738921   4.664816
    13  H    2.929834   3.645366   3.492191   4.610458   5.075241
    14  O    3.913561   5.820797   6.529104   5.936852   2.711875
    15  H    4.619775   6.560185   7.197894   6.681813   3.338554
    16  H    4.525565   6.290955   7.078248   6.320825   3.262033
    17  O    2.348904   4.686286   5.310400   5.217874   3.185744
    18  H    2.878578   5.153072   5.819419   5.544030   2.936697
    19  H    2.965837   5.330073   5.843814   5.955913   3.983121
                    6          7          8          9         10
     6  H    0.000000
     7  H    1.595600   0.000000
     8  O    5.099330   4.772771   0.000000
     9  H    5.447842   5.278249   0.975492   0.000000
    10  H    5.584337   4.990325   0.974925   1.559879   0.000000
    11  O    4.535333   4.881270   3.213930   3.708911   4.008035
    12  H    4.745192   5.160573   4.126024   4.672832   4.859115
    13  H    5.400478   5.589091   3.037420   3.536311   3.765338
    14  O    3.266827   1.735459   5.465571   6.121352   5.398839
    15  H    3.678257   2.358296   6.301627   6.997921   6.254219
    16  H    3.875083   2.329601   5.810331   6.399037   5.627249
    17  O    3.967473   2.909570   3.240900   4.121499   3.143782
    18  H    3.689663   2.369594   4.075814   4.886352   3.956027
    19  H    4.662546   3.679773   3.690144   4.640454   3.564380
                   11         12         13         14         15
    11  O    0.000000
    12  H    0.974532   0.000000
    13  H    0.975654   1.559001   0.000000
    14  O    5.873403   6.084348   6.434607   0.000000
    15  H    6.372518   6.447353   6.966873   0.975280   0.000000
    16  H    6.632253   6.924897   7.147215   0.975842   1.546076
    17  O    3.874026   4.241171   4.128300   2.764968   3.398748
    18  H    4.607890   4.888722   4.984363   1.812232   2.430837
    19  H    3.924210   4.140308   4.060886   3.344249   3.775277
                   16         17         18         19
    16  H    0.000000
    17  O    3.323041   0.000000
    18  H    2.405151   0.994084   0.000000
    19  H    3.956778   0.973980   1.585036   0.000000
 Stoichiometry    H12HgO6(2+)
 Framework group  C1[X(H12HgO6)]
 Deg. of freedom    51
 Full point group                 C1      NOp   1
 Largest Abelian subgroup         C1      NOp   1
 Largest concise Abelian subgroup C1      NOp   1
                         Standard orientation:                         
 ---------------------------------------------------------------------
 Center     Atomic      Atomic             Coordinates (Angstroms)
 Number     Number       Type             X           Y           Z
 ---------------------------------------------------------------------
      1         80           0       -0.211099    0.032705    0.055620
      2          8           0       -1.878802    1.606312   -0.633944
      3          1           0       -2.583921    1.821118    0.004263
      4          1           0       -1.637175    2.446553   -1.065304
      5          8           0        1.467603    1.590431   -0.007643
      6          1           0        1.455628    2.323065    0.635510
      7          1           0        2.377757    1.172902    0.024983
      8          8           0       -1.388992   -1.347865   -1.470570
      9          1           0       -1.994886   -0.895725   -2.087050
     10          1           0       -0.896985   -2.000535   -2.002012
     11          8           0       -1.898018   -0.571699    1.606410
     12          1           0       -1.750452   -0.592002    2.569490
     13          1           0       -2.403439   -1.378295    1.392276
     14          8           0        3.700853    0.052693   -0.054807
     15          1           0        4.369430    0.078302    0.654785
     16          1           0        4.215800    0.066955   -0.883597
     17          8           0        1.481659   -1.595214    0.013213
     18          1           0        2.391777   -1.196571    0.044408
     19          1           0        1.469949   -2.339455    0.641389
 ---------------------------------------------------------------------
 Rotational constants (GHZ):           1.7401779           0.8135199           0.7165418
 Leave Link  202 at Wed May 11 22:07:46 2022, MaxMem= 67108864000 cpu:               0.3 elap:               0.0
 (Enter /cm/shared/apps/gaussian/intel/EM64T/SSE4_2-enabled/binary//g16/l301.exe)
 Standard basis: SDDAll (6D, 10F)
 Ernie: Thresh=  0.10000D-02 Tol=  0.10000D-05 Strict=F.
 There are   129 symmetry adapted cartesian basis functions of A   symmetry.
 There are   129 symmetry adapted basis functions of A   symmetry.
   129 basis functions,   227 primitive gaussians,   129 cartesian basis functions
    33 alpha electrons       33 beta electrons
       nuclear repulsion energy       364.5031052618 Hartrees.
 IExCor=    0 DFT=F Ex=HF Corr=None ExCW=0 ScaHFX=  1.000000
 ScaDFX=  1.000000  1.000000  1.000000  1.000000 ScalE2=  1.000000  1.000000
 IRadAn=      5 IRanWt=     -1 IRanGd=            0 ICorTp=0 IEmpDi=  4
 NAtoms=   19 NActive=   19 NUniq=   19 SFac= 1.00D+00 NAtFMM=   60 NAOKFM=F Big=F
 Integral buffers will be    131072 words long.
 Raffenetti 1 integral format.
 Two-electron integral symmetry is turned on.
 Leave Link  301 at Wed May 11 22:07:46 2022, MaxMem= 67108864000 cpu:               1.4 elap:               0.1
 (Enter /cm/shared/apps/gaussian/intel/EM64T/SSE4_2-enabled/binary//g16/l302.exe)
 NPDir=0 NMtPBC=     1 NCelOv=     1 NCel=       1 NClECP=     1 NCelD=      1
         NCelK=      1 NCelE2=     1 NClLst=     1 CellRange=     0.0.
 One-electron integrals computed using PRISM.
 One-electron integral symmetry used in STVInt
   1 Symmetry operations used in ECPInt.
 ECPInt:  NShTT=    2346 NPrTT=    7709 LenC2=    2336 LenP2D=    6159.
 LDataN:  DoStor=T MaxTD1= 7 Len=  274
 NBasis=   129 RedAO= T EigKep=  3.86D-04  NBF=   129
 NBsUse=   129 1.00D-06 EigRej= -1.00D+00 NBFU=   129
 Leave Link  302 at Wed May 11 22:07:46 2022, MaxMem= 67108864000 cpu:               7.7 elap:               0.3
 (Enter /cm/shared/apps/gaussian/intel/EM64T/SSE4_2-enabled/binary//g16/l303.exe)
 DipDrv:  MaxL=1.
 Leave Link  303 at Wed May 11 22:07:46 2022, MaxMem= 67108864000 cpu:               2.7 elap:               0.1
 (Enter /cm/shared/apps/gaussian/intel/EM64T/SSE4_2-enabled/binary//g16/l401.exe)
 ExpMin= 2.00D-02 ExpMax= 4.71D+01 ExpMxC= 4.71D+01 IAcc=3 IRadAn=         5 AccDes= 0.00D+00
 Harris functional with IExCor=  205 and IRadAn=       5 diagonalized for initial guess.
 HarFok:  IExCor=  205 AccDes= 0.00D+00 IRadAn=         5 IDoV= 1 UseB2=F ITyADJ=14
 ICtDFT=  3500011 ScaDFX=  1.000000  1.000000  1.000000  1.000000
 Defaulting to unpruned grid for atomic number  80.
 FoFCou: FMM=F IPFlag=           0 FMFlag=      100000 FMFlg1=           0
         NFxFlg=           0 DoJE=T BraDBF=F KetDBF=T FulRan=T
         wScrn=  0.000000 ICntrl=       500 IOpCl=  0 I1Cent=   200000004 NGrid=           0
         NMat0=    1 NMatS0=      1 NMatT0=    0 NMatD0=    1 NMtDS0=    0 NMtDT0=    0
 Petite list used in FoFCou.
 Harris En= -257.123537162791    
 JPrj=0 DoOrth=F DoCkMO=F.
 Leave Link  401 at Wed May 11 22:07:47 2022, MaxMem= 67108864000 cpu:               9.1 elap:               0.4
 (Enter /cm/shared/apps/gaussian/intel/EM64T/SSE4_2-enabled/binary//g16/l502.exe)
 Integral symmetry usage will be decided dynamically.
 Closed shell SCF:
 Using DIIS extrapolation, IDIIS=  1040.
 NGot= 67108864000 LenX= 67108825336 LenY= 67108808254
 Requested convergence on RMS density matrix=1.00D-08 within 128 cycles.
 Requested convergence on MAX density matrix=1.00D-06.
 Requested convergence on             energy=1.00D-06.
 No special actions if energy rises.
 Fock matrices will be formed incrementally for  20 cycles.

 Cycle   1  Pass 0  IDiag  1:
 FoFJK:  IHMeth= 1 ICntrl=       0 DoSepK=F KAlg= 0 I1Cent=           0 FoldK=F
 IRaf= 980000000 NMat=       1 IRICut=       1 DoRegI=T DoRafI=F ISym2E= 0 IDoP0=0 IntGTp=1.
 FoFCou: FMM=F IPFlag=           0 FMFlag=      100000 FMFlg1=           0
         NFxFlg=           0 DoJE=F BraDBF=F KetDBF=F FulRan=T
         wScrn=  0.000000 ICntrl=         0 IOpCl=  0 I1Cent=           0 NGrid=           0
         NMat0=    1 NMatS0=      1 NMatT0=    0 NMatD0=    1 NMtDS0=    0 NMtDT0=    0
 Symmetry not used in FoFCou.
 E= -253.033192101634    
 DIIS: error= 4.34D-02 at cycle   1 NSaved=   1.
 NSaved= 1 IEnMin= 1 EnMin= -253.033192101634     IErMin= 1 ErrMin= 4.34D-02
 ErrMax= 4.34D-02  0.00D+00 EMaxC= 1.00D-01 BMatC= 5.62D-01 BMatP= 5.62D-01
 IDIUse=3 WtCom= 5.66D-01 WtEn= 4.34D-01
 Coeff-Com:  0.100D+01
 Coeff-En:   0.100D+01
 Coeff:      0.100D+01
 Gap=     0.708 Goal=   None    Shift=    0.000
 GapD=    0.708 DampG=2.000 DampE=0.250 DampFc=0.5000 IDamp=-1.
 Damping current iteration by 5.00D-01
 RMSDP=6.61D-03 MaxDP=1.70D-01              OVMax= 1.34D-01

 Cycle   2  Pass 0  IDiag  1:
 RMSU=  3.30D-03    CP:  1.00D+00
 E= -253.262410674510     Delta-E=       -0.229218572876 Rises=F Damp=T
 DIIS: error= 1.27D-02 at cycle   2 NSaved=   2.
 NSaved= 2 IEnMin= 2 EnMin= -253.262410674510     IErMin= 2 ErrMin= 1.27D-02
 ErrMax= 1.27D-02  0.00D+00 EMaxC= 1.00D-01 BMatC= 3.81D-02 BMatP= 5.62D-01
 IDIUse=3 WtCom= 8.73D-01 WtEn= 1.27D-01
 Coeff-Com: -0.263D+00 0.126D+01
 Coeff-En:   0.000D+00 0.100D+01
 Coeff:     -0.229D+00 0.123D+01
 Gap=     0.547 Goal=   None    Shift=    0.000
 RMSDP=2.02D-03 MaxDP=4.57D-02 DE=-2.29D-01 OVMax= 6.07D-02

 Cycle   3  Pass 0  IDiag  1:
 RMSU=  1.60D-03    CP:  1.00D+00  1.37D+00
 E= -253.458089340884     Delta-E=       -0.195678666374 Rises=F Damp=F
 DIIS: error= 4.09D-03 at cycle   3 NSaved=   3.
 NSaved= 3 IEnMin= 3 EnMin= -253.458089340884     IErMin= 3 ErrMin= 4.09D-03
 ErrMax= 4.09D-03  0.00D+00 EMaxC= 1.00D-01 BMatC= 1.89D-03 BMatP= 3.81D-02
 IDIUse=3 WtCom= 9.59D-01 WtEn= 4.09D-02
 Coeff-Com:  0.362D-01-0.171D+00 0.113D+01
 Coeff-En:   0.000D+00 0.000D+00 0.100D+01
 Coeff:      0.347D-01-0.164D+00 0.113D+01
 Gap=     0.528 Goal=   None    Shift=    0.000
 RMSDP=6.43D-04 MaxDP=2.07D-02 DE=-1.96D-01 OVMax= 1.60D-02

 Cycle   4  Pass 0  IDiag  1:
 RMSU=  3.87D-04    CP:  9.96D-01  1.34D+00  1.30D+00
 E= -253.460174554430     Delta-E=       -0.002085213546 Rises=F Damp=F
 DIIS: error= 1.03D-03 at cycle   4 NSaved=   4.
 NSaved= 4 IEnMin= 4 EnMin= -253.460174554430     IErMin= 4 ErrMin= 1.03D-03
 ErrMax= 1.03D-03  0.00D+00 EMaxC= 1.00D-01 BMatC= 2.75D-04 BMatP= 1.89D-03
 IDIUse=3 WtCom= 9.90D-01 WtEn= 1.03D-02
 Coeff-Com:  0.231D-01-0.115D+00 0.321D+00 0.770D+00
 Coeff-En:   0.000D+00 0.000D+00 0.000D+00 0.100D+01
 Coeff:      0.229D-01-0.114D+00 0.318D+00 0.773D+00
 Gap=     0.532 Goal=   None    Shift=    0.000
 RMSDP=1.57D-04 MaxDP=3.48D-03 DE=-2.09D-03 OVMax= 4.80D-03

 Cycle   5  Pass 0  IDiag  1:
 RMSU=  1.08D-04    CP:  9.96D-01  1.35D+00  1.36D+00  9.34D-01
 E= -253.460472308993     Delta-E=       -0.000297754562 Rises=F Damp=F
 DIIS: error= 2.64D-04 at cycle   5 NSaved=   5.
 NSaved= 5 IEnMin= 5 EnMin= -253.460472308993     IErMin= 5 ErrMin= 2.64D-04
 ErrMax= 2.64D-04  0.00D+00 EMaxC= 1.00D-01 BMatC= 1.08D-05 BMatP= 2.75D-04
 IDIUse=3 WtCom= 9.97D-01 WtEn= 2.64D-03
 Coeff-Com: -0.105D-01 0.396D-01-0.124D+00-0.224D+00 0.132D+01
 Coeff-En:   0.000D+00 0.000D+00 0.000D+00 0.000D+00 0.100D+01
 Coeff:     -0.104D-01 0.394D-01-0.123D+00-0.224D+00 0.132D+01
 Gap=     0.532 Goal=   None    Shift=    0.000
 RMSDP=6.55D-05 MaxDP=1.84D-03 DE=-2.98D-04 OVMax= 2.30D-03

 Cycle   6  Pass 0  IDiag  1:
 RMSU=  3.01D-05    CP:  9.96D-01  1.36D+00  1.38D+00  9.95D-01  1.36D+00
 E= -253.460501062764     Delta-E=       -0.000028753771 Rises=F Damp=F
 DIIS: error= 1.04D-04 at cycle   6 NSaved=   6.
 NSaved= 6 IEnMin= 6 EnMin= -253.460501062764     IErMin= 6 ErrMin= 1.04D-04
 ErrMax= 1.04D-04  0.00D+00 EMaxC= 1.00D-01 BMatC= 1.22D-06 BMatP= 1.08D-05
 IDIUse=3 WtCom= 9.99D-01 WtEn= 1.04D-03
 Coeff-Com: -0.301D-02 0.133D-01-0.458D-01-0.785D-01 0.267D+00 0.847D+00
 Coeff-En:   0.000D+00 0.000D+00 0.000D+00 0.000D+00 0.000D+00 0.100D+01
 Coeff:     -0.301D-02 0.133D-01-0.458D-01-0.785D-01 0.267D+00 0.847D+00
 Gap=     0.532 Goal=   None    Shift=    0.000
 RMSDP=1.49D-05 MaxDP=4.29D-04 DE=-2.88D-05 OVMax= 4.08D-04

 Cycle   7  Pass 0  IDiag  1:
 RMSU=  7.16D-06    CP:  9.96D-01  1.36D+00  1.38D+00  1.01D+00  1.43D+00
                    CP:  1.26D+00
 E= -253.460503010720     Delta-E=       -0.000001947955 Rises=F Damp=F
 DIIS: error= 3.34D-05 at cycle   7 NSaved=   7.
 NSaved= 7 IEnMin= 7 EnMin= -253.460503010720     IErMin= 7 ErrMin= 3.34D-05
 ErrMax= 3.34D-05  0.00D+00 EMaxC= 1.00D-01 BMatC= 1.58D-07 BMatP= 1.22D-06
 IDIUse=1 WtCom= 1.00D+00 WtEn= 0.00D+00
 Coeff-Com:  0.162D-02-0.521D-02 0.157D-01 0.340D-01-0.214D+00 0.582D-01
 Coeff-Com:  0.111D+01
 Coeff:      0.162D-02-0.521D-02 0.157D-01 0.340D-01-0.214D+00 0.582D-01
 Coeff:      0.111D+01
 Gap=     0.532 Goal=   None    Shift=    0.000
 RMSDP=8.59D-06 MaxDP=3.23D-04 DE=-1.95D-06 OVMax= 2.19D-04

 Initial convergence to 1.0D-05 achieved.  Increase integral accuracy.
 Cycle   8  Pass 1  IDiag  1:
 E= -253.460503365977     Delta-E=       -0.000000355257 Rises=F Damp=F
 DIIS: error= 6.76D-06 at cycle   1 NSaved=   1.
 NSaved= 1 IEnMin= 1 EnMin= -253.460503365977     IErMin= 1 ErrMin= 6.76D-06
 ErrMax= 6.76D-06  0.00D+00 EMaxC= 1.00D-01 BMatC= 5.88D-09 BMatP= 5.88D-09
 IDIUse=1 WtCom= 1.00D+00 WtEn= 0.00D+00
 Coeff-Com:  0.100D+01
 Coeff:      0.100D+01
 Gap=     0.532 Goal=   None    Shift=    0.000
 RMSDP=8.59D-06 MaxDP=3.23D-04 DE=-3.55D-07 OVMax= 4.60D-05

 Cycle   9  Pass 1  IDiag  1:
 RMSU=  1.45D-06    CP:  1.00D+00
 E= -253.460503381126     Delta-E=       -0.000000015149 Rises=F Damp=F
 DIIS: error= 3.15D-06 at cycle   2 NSaved=   2.
 NSaved= 2 IEnMin= 2 EnMin= -253.460503381126     IErMin= 2 ErrMin= 3.15D-06
 ErrMax= 3.15D-06  0.00D+00 EMaxC= 1.00D-01 BMatC= 1.40D-09 BMatP= 5.88D-09
 IDIUse=1 WtCom= 1.00D+00 WtEn= 0.00D+00
 Coeff-Com: -0.301D-01 0.103D+01
 Coeff:     -0.301D-01 0.103D+01
 Gap=     0.532 Goal=   None    Shift=    0.000
 RMSDP=7.06D-07 MaxDP=2.69D-05 DE=-1.51D-08 OVMax= 2.08D-05

 Cycle  10  Pass 1  IDiag  1:
 RMSU=  3.64D-07    CP:  1.00D+00  1.42D+00
 E= -253.460503384681     Delta-E=       -0.000000003556 Rises=F Damp=F
 DIIS: error= 1.28D-06 at cycle   3 NSaved=   3.
 NSaved= 3 IEnMin= 3 EnMin= -253.460503384681     IErMin= 3 ErrMin= 1.28D-06
 ErrMax= 1.28D-06  0.00D+00 EMaxC= 1.00D-01 BMatC= 3.39D-10 BMatP= 1.40D-09
 IDIUse=1 WtCom= 1.00D+00 WtEn= 0.00D+00
 Coeff-Com: -0.281D+00 0.912D-01 0.119D+01
 Coeff:     -0.281D+00 0.912D-01 0.119D+01
 Gap=     0.532 Goal=   None    Shift=    0.000
 RMSDP=5.84D-07 MaxDP=2.31D-05 DE=-3.56D-09 OVMax= 1.69D-05

 Cycle  11  Pass 1  IDiag  1:
 RMSU=  1.08D-07    CP:  1.00D+00  1.80D+00  1.37D+00
 E= -253.460503385788     Delta-E=       -0.000000001107 Rises=F Damp=F
 DIIS: error= 2.47D-07 at cycle   4 NSaved=   4.
 NSaved= 4 IEnMin= 4 EnMin= -253.460503385788     IErMin= 4 ErrMin= 2.47D-07
 ErrMax= 2.47D-07  0.00D+00 EMaxC= 1.00D-01 BMatC= 1.63D-11 BMatP= 3.39D-10
 IDIUse=1 WtCom= 1.00D+00 WtEn= 0.00D+00
 Coeff-Com: -0.526D-01-0.262D-01 0.238D+00 0.841D+00
 Coeff:     -0.526D-01-0.262D-01 0.238D+00 0.841D+00
 Gap=     0.532 Goal=   None    Shift=    0.000
 RMSDP=6.52D-08 MaxDP=1.78D-06 DE=-1.11D-09 OVMax= 1.51D-06

 Cycle  12  Pass 1  IDiag  1:
 RMSU=  3.11D-08    CP:  1.00D+00  1.83D+00  1.43D+00  1.25D+00
 E= -253.460503385819     Delta-E=       -0.000000000031 Rises=F Damp=F
 DIIS: error= 1.13D-07 at cycle   5 NSaved=   5.
 NSaved= 5 IEnMin= 5 EnMin= -253.460503385819     IErMin= 5 ErrMin= 1.13D-07
 ErrMax= 1.13D-07  0.00D+00 EMaxC= 1.00D-01 BMatC= 2.07D-12 BMatP= 1.63D-11
 IDIUse=1 WtCom= 1.00D+00 WtEn= 0.00D+00
 Coeff-Com:  0.607D-01-0.235D-01-0.250D+00-0.292D-01 0.124D+01
 Coeff:      0.607D-01-0.235D-01-0.250D+00-0.292D-01 0.124D+01
 Gap=     0.532 Goal=   None    Shift=    0.000
 RMSDP=4.34D-08 MaxDP=1.20D-06 DE=-3.09D-11 OVMax= 1.28D-06

 Cycle  13  Pass 1  IDiag  1:
 RMSU=  8.22D-09    CP:  1.00D+00  1.85D+00  1.48D+00  1.53D+00  1.33D+00
 E= -253.460503385831     Delta-E=       -0.000000000011 Rises=F Damp=F
 DIIS: error= 1.95D-08 at cycle   6 NSaved=   6.
 NSaved= 6 IEnMin= 6 EnMin= -253.460503385831     IErMin= 6 ErrMin= 1.95D-08
 ErrMax= 1.95D-08  0.00D+00 EMaxC= 1.00D-01 BMatC= 4.28D-14 BMatP= 2.07D-12
 IDIUse=1 WtCom= 1.00D+00 WtEn= 0.00D+00
 Coeff-Com: -0.212D-01 0.739D-02 0.903D-01 0.527D-02-0.493D+00 0.141D+01
 Coeff:     -0.212D-01 0.739D-02 0.903D-01 0.527D-02-0.493D+00 0.141D+01
 Gap=     0.532 Goal=   None    Shift=    0.000
 RMSDP=5.59D-09 MaxDP=2.09D-07 DE=-1.15D-11 OVMax= 2.29D-07

 SCF Done:  E(RHF) =  -253.460503386     A.U. after   13 cycles
            NFock= 13  Conv=0.56D-08     -V/T= 2.9181
 KE= 1.321387500216D+02 PE=-1.273761745832D+03 EE= 5.236593871623D+02
 Leave Link  502 at Wed May 11 22:07:49 2022, MaxMem= 67108864000 cpu:              58.3 elap:               2.1
 (Enter /cm/shared/apps/gaussian/intel/EM64T/SSE4_2-enabled/binary//g16/l801.exe)
 Range of M.O.s used for correlation:     1   129
 NBasis=   129 NAE=    33 NBE=    33 NFC=     0 NFV=     0
 NROrb=    129 NOA=    33 NOB=    33 NVA=    96 NVB=    96

 **** Warning!!: The largest alpha MO coefficient is  0.28640434D+02

 Leave Link  801 at Wed May 11 22:07:49 2022, MaxMem= 67108864000 cpu:               1.0 elap:               0.1
 (Enter /cm/shared/apps/gaussian/intel/EM64T/SSE4_2-enabled/binary//g16/l906.exe)
 FulOut=F Deriv=T AODrv=T NAtomX=    19
   MMem=           0  MDisk=          33 MDiskD=          33
  W3Min=      549153 MinDsk=     1693460 NBas6D=         129
 NBas2D=        8499    NTT=        8385    LW2=     3308096
    MDV= 67108613533 MDiskM=     7225087 NBas2p=        8378
 Disk-based method using ON**2 memory for 33 occupieds at a time.
 Permanent disk used for amplitudes=    12443904 words.
 Estimated scratch disk usage=   136266810 words.
 IMap=   1   2   3   4   5   6   7   8   9  10  11  12  13  14  15  16  17  18  19  20
 IMap=  21  22  23  24  25  26  27  28  29  30  31  32  33
 Actual    scratch disk usage=   124511290 words.
 JobTyp=1 Pass  1:  I=   1 to  33 NPSUse= 28 ParTrn=T ParDer=T DoDerP=T.
 (rs|ai) integrals will be sorted in core.
 Spin components of T(2) and E(2):
     alpha-alpha T2 =       0.3504803362D-01 E2=     -0.1133243004D+00
     alpha-beta  T2 =       0.2079083520D+00 E2=     -0.6857600595D+00
     beta-beta   T2 =       0.3504803362D-01 E2=     -0.1133243004D+00
 The integrals were generated   1 times.
 ANorm=    0.1130488575D+01
 E2 =    -0.9124086602D+00 EUMP2 =    -0.25437291204607D+03
 Leave Link  906 at Wed May 11 22:08:05 2022, MaxMem= 67108864000 cpu:             441.3 elap:              15.8
 (Enter /cm/shared/apps/gaussian/intel/EM64T/SSE4_2-enabled/binary//g16/l1101.exe)
 Using compressed Sx but separate Hx and Fx, NAtomX=    19.
 Will process     20 centers per pass.
   1 Symmetry operations used in ECPInt.
 ECPInt:  NShTT=    2346 NPrTT=    7709 LenC2=    2336 LenP2D=    6159.
 LDataN:  DoStor=T MaxTD1= 8 Len=  415
 Leave Link 1101 at Wed May 11 22:08:05 2022, MaxMem= 67108864000 cpu:              12.6 elap:               0.5
 (Enter /cm/shared/apps/gaussian/intel/EM64T/SSE4_2-enabled/binary//g16/l1102.exe)
 Leave Link 1102 at Wed May 11 22:08:05 2022, MaxMem= 67108864000 cpu:               0.7 elap:               0.0
 (Enter /cm/shared/apps/gaussian/intel/EM64T/SSE4_2-enabled/binary//g16/l1110.exe)
 Forming Gx(P) for the SCF density, NAtomX=    19.
 Integral derivatives from FoFJK, PRISM(SPDF).
 Do as many integral derivatives as possible in FoFJK.
 G2DrvN: MDV=   67108862458.
 G2DrvN: will do    20 centers at a time, making    1 passes.
 Calling FoFCou, ICntrl=  3107 FMM=F I1Cent=   0 AccDes= 0.00D+00.
 FoFJK:  IHMeth= 1 ICntrl=    3107 DoSepK=F KAlg= 0 I1Cent=           0 FoldK=F
 IRaf=         0 NMat=       1 IRICut=       1 DoRegI=T DoRafI=F ISym2E= 0 IDoP0=0 IntGTp=1.
 FoFCou: FMM=F IPFlag=           0 FMFlag=      100000 FMFlg1=           0
         NFxFlg=           0 DoJE=F BraDBF=F KetDBF=F FulRan=T
         wScrn=  0.000000 ICntrl=      3107 IOpCl=  0 I1Cent=           0 NGrid=           0
         NMat0=    1 NMatS0=      1 NMatT0=    0 NMatD0=    1 NMtDS0=    0 NMtDT0=    0
 Symmetry not used in FoFCou.
 End of G2Drv F.D. properties file   721 does not exist.
 End of G2Drv F.D. properties file   722 does not exist.
 End of G2Drv F.D. properties file   788 does not exist.
 Leave Link 1110 at Wed May 11 22:08:06 2022, MaxMem= 67108864000 cpu:              14.0 elap:               0.5
 (Enter /cm/shared/apps/gaussian/intel/EM64T/SSE4_2-enabled/binary//g16/l1002.exe)
 Minotr:  Closed shell wavefunction.
          IDoAtm=1111111111111111111
          Direct CPHF calculation.
          Differentiating once with respect to electric field.
                with respect to dipole field.
          Differentiating once with respect to nuclear coordinates.
          Requested convergence is 1.0D-08 RMS, and 1.0D-07 maximum.
          Secondary convergence is 1.0D-12 RMS, and 1.0D-12 maximum.
          NewPWx=T KeepS1=T KeepF1=T KeepIn=T MapXYZ=F SortEE=F KeepMc=T.
 Keep R1 ints in memory in canonical form, NReq=41189821.
 FoFCou: FMM=F IPFlag=           0 FMFlag=           0 FMFlg1=           0
         NFxFlg=           0 DoJE=F BraDBF=F KetDBF=F FulRan=T
         wScrn=  0.000000 ICntrl=       600 IOpCl=  0 I1Cent=           0 NGrid=           0
         NMat0=    1 NMatS0=   8385 NMatT0=    0 NMatD0=    1 NMtDS0=    0 NMtDT0=    0
 Symmetry not used in FoFCou.
 Two-electron integral symmetry not used.
          MDV=   67108864000 using IRadAn=       1.
          Solving linear equations simultaneously, MaxMat=       0.
          There are    60 degrees of freedom in the 1st order CPHF.  IDoFFX=6 NUNeed=    60.
     57 vectors produced by pass  0 Test12= 5.28D-15 1.67D-09 XBig12= 1.00D+01 8.05D-01.
 AX will form    57 AO Fock derivatives at one time.
     57 vectors produced by pass  1 Test12= 5.28D-15 1.67D-09 XBig12= 1.55D-01 7.33D-02.
     57 vectors produced by pass  2 Test12= 5.28D-15 1.67D-09 XBig12= 1.98D-03 5.74D-03.
     57 vectors produced by pass  3 Test12= 5.28D-15 1.67D-09 XBig12= 1.13D-05 4.23D-04.
     57 vectors produced by pass  4 Test12= 5.28D-15 1.67D-09 XBig12= 7.98D-08 3.53D-05.
     57 vectors produced by pass  5 Test12= 5.28D-15 1.67D-09 XBig12= 3.42D-10 2.22D-06.
     36 vectors produced by pass  6 Test12= 5.28D-15 1.67D-09 XBig12= 1.30D-12 1.53D-07.
      3 vectors produced by pass  7 Test12= 5.28D-15 1.67D-09 XBig12= 5.43D-15 8.08D-09.
 InvSVY:  IOpt=1 It=  1 EMax= 4.88D-15
 Solved reduced A of dimension   381 with    60 vectors.
 FullF1:  Do perturbations      1 to      60.
 Saving first derivative matrices.
 End of Minotr F.D. properties file   721 does not exist.
 End of Minotr F.D. properties file   722 does not exist.
 End of Minotr F.D. properties file   788 does not exist.
 Leave Link 1002 at Wed May 11 22:08:07 2022, MaxMem= 67108864000 cpu:              49.0 elap:               1.8
 (Enter /cm/shared/apps/gaussian/intel/EM64T/SSE4_2-enabled/binary//g16/l811.exe)
 MDV= 67108864000.
 Form MO integral derivatives with frozen-active canonical formalism.
 MOERI=1 MOERIx=1 NAtoms=    19 NAtomX=    19.
 Discarding MO integrals.
 MO basis two electron integral derivatives will not be stored on disk.
 IAlg= 3 DoFC=T DoPWx=T Debug=F.
 Reordered first order wavefunction length =     20072448
 In DefCFB: NBatch=  1 ICI= 33 ICA= 96 LFMax= 96
            Large arrays: LIAPS=   210874752 LIARS=   111567456 words.
 In StABat: MaxSiz= 39 MinSiz= 13 NAtomB=  4
 DoIAMN: NPSUse= 28.
 Leave Link  811 at Wed May 11 22:08:53 2022, MaxMem= 67108864000 cpu:            1273.1 elap:              45.6
 (Enter /cm/shared/apps/gaussian/intel/EM64T/SSE4_2-enabled/binary//g16/l804.exe)
 Closed-shell transformation, MDV= 67108864000 ITran=4 ISComp=1.
 Semi-Direct transformation.
 ModeAB=           4 MOrb=            33 LenV=   67108305488
 LASXX=     28702344 LTotXX=    28702344 LenRXX=    58192761
 LTotAB=    29490417 MaxLAS=    35379927 LenRXY=           0
 NonZer=    86895105 LenScr=   131092480 LnRSAI=    35379927
 LnScr1=    53839872 LExtra=           0 Total=    278505040
 MaxDsk=          -1 SrtSym=           T ITran=            4
 DoSDTr:  NPSUse= 28
 JobTyp=0 Pass  1:  I=   1 to  33.
 (rs|ai) integrals will be sorted in core.
 Complete sort for first half transformation.
 First half transformation complete.
 Begin second half transformation for I=  10.
 Begin second half transformation for I=  20.
 Begin second half transformation for I=  30.
 Complete sort for second half transformation.
 Second half transformation complete.
 SymMOI:  orbitals are not symmetric.
 Spin components of T(2) and E(2):
     alpha-alpha T2 =       0.3504803362D-01 E2=     -0.1133243004D+00
     alpha-beta  T2 =       0.2079083520D+00 E2=     -0.6857600595D+00
     beta-beta   T2 =       0.3504803362D-01 E2=     -0.1133243004D+00
 ANorm=    0.1598752276D+01
 E2 =    -0.9124086602D+00 EUMP2 =    -0.25437291204607D+03
 Leave Link  804 at Wed May 11 22:08:58 2022, MaxMem= 67108864000 cpu:             144.6 elap:               5.2
 (Enter /cm/shared/apps/gaussian/intel/EM64T/SSE4_2-enabled/binary//g16/l1002.exe)
 Minotr:  Closed shell wavefunction.
          Computing MP2/KS-MP2 derivatives.
          Using Z-Vector for PSCF gradient.
          Skipping F1 and S1 gradient terms here.
          IDoAtm=1111111111111111111
          Using MO integrals in the linear equations.
          Forming densities via direct SCF.
          Differentiating once with respect to electric field.
                with respect to dipole field.
          Differentiating once with respect to nuclear coordinates.
          Requested convergence is 1.0D-10 RMS, and 1.0D-09 maximum.
          NewPWx=F KeepS1=T KeepF1=T KeepIn=T MapXYZ=F SortEE=F KeepMc=T.
          MDV=   67108864000 using IRadAn=       5.
          Solving linear equations separately, MaxMat=       0.
          There are     1 degrees of freedom in the 1st order CPHF.  IDoFFX=0 NUNeed=     1.
 FoFJK:  IHMeth= 1 ICntrl=       0 DoSepK=F KAlg= 0 I1Cent=           0 FoldK=F
 IRaf=         0 NMat=       1 IRICut=       1 DoRegI=T DoRafI=F ISym2E= 0 IDoP0=0 IntGTp=1.
 FoFCou: FMM=F IPFlag=           0 FMFlag=      100000 FMFlg1=           0
         NFxFlg=           0 DoJE=F BraDBF=F KetDBF=F FulRan=T
         wScrn=  0.000000 ICntrl=         0 IOpCl=  0 I1Cent=           0 NGrid=           0
         NMat0=    1 NMatS0=      1 NMatT0=    0 NMatD0=    1 NMtDS0=    0 NMtDT0=    0
 Symmetry not used in FoFCou.
 LinEq1:  Iter=  0 NonCon=     1 RMS=6.23D-03 Max=1.00D-01 NDo=     1
 LinEq1:  Iter=  1 NonCon=     1 RMS=1.34D-03 Max=1.43D-02 NDo=     1
 LinEq1:  Iter=  2 NonCon=     1 RMS=3.91D-04 Max=4.97D-03 NDo=     1
 LinEq1:  Iter=  3 NonCon=     1 RMS=1.11D-04 Max=1.32D-03 NDo=     1
 LinEq1:  Iter=  4 NonCon=     1 RMS=3.05D-05 Max=3.75D-04 NDo=     1
 LinEq1:  Iter=  5 NonCon=     1 RMS=5.28D-06 Max=4.89D-05 NDo=     1
 LinEq1:  Iter=  6 NonCon=     1 RMS=2.32D-06 Max=2.77D-05 NDo=     1
 LinEq1:  Iter=  7 NonCon=     1 RMS=5.21D-07 Max=7.18D-06 NDo=     1
 LinEq1:  Iter=  8 NonCon=     1 RMS=9.53D-08 Max=1.27D-06 NDo=     1
 LinEq1:  Iter=  9 NonCon=     1 RMS=4.11D-08 Max=4.35D-07 NDo=     1
 LinEq1:  Iter= 10 NonCon=     1 RMS=9.08D-09 Max=8.56D-08 NDo=     1
 LinEq1:  Iter= 11 NonCon=     1 RMS=1.25D-09 Max=1.33D-08 NDo=     1
 LinEq1:  Iter= 12 NonCon=     1 RMS=2.41D-10 Max=4.24D-09 NDo=     1
 LinEq1:  Iter= 13 NonCon=     1 RMS=1.07D-10 Max=9.88D-10 NDo=     1
 LinEq1:  Iter= 14 NonCon=     0 RMS=2.27D-11 Max=4.80D-10 NDo=     1
 Linear equations converged to 1.000D-10 1.000D-09 after    14 iterations.
 End of Minotr F.D. properties file   721 does not exist.
 End of Minotr F.D. properties file   722 does not exist.
 End of Minotr F.D. properties file   788 does not exist.
 Leave Link 1002 at Wed May 11 22:09:01 2022, MaxMem= 67108864000 cpu:              68.0 elap:               2.5
 (Enter /cm/shared/apps/gaussian/intel/EM64T/SSE4_2-enabled/binary//g16/l1102.exe)
 Use density number 2.
 Symmetrizing basis deriv contribution to polar:
 IMax=3 JMax=2 DiffMx= 0.00D+00
 Leave Link 1102 at Wed May 11 22:09:01 2022, MaxMem= 67108864000 cpu:               1.3 elap:               0.1
 (Enter /cm/shared/apps/gaussian/intel/EM64T/SSE4_2-enabled/binary//g16/l1110.exe)
 Forming Gx(P) for generalized density number  2 NAtomX=    19.
 Integral derivatives from FoFJK, PRISM(SPDF).
 Do as many integral derivatives as possible in FoFJK.
 G2DrvN: MDV=   67108862458.
 G2DrvN: will do    20 centers at a time, making    1 passes.
 Calling FoFCou, ICntrl=  3107 FMM=F I1Cent=   0 AccDes= 0.00D+00.
 FoFJK:  IHMeth= 1 ICntrl=    3107 DoSepK=F KAlg= 0 I1Cent=           0 FoldK=F
 IRaf=         0 NMat=       1 IRICut=       1 DoRegI=T DoRafI=F ISym2E= 0 IDoP0=0 IntGTp=1.
 FoFCou: FMM=F IPFlag=           0 FMFlag=      100000 FMFlg1=           0
         NFxFlg=           0 DoJE=F BraDBF=F KetDBF=F FulRan=T
         wScrn=  0.000000 ICntrl=      3107 IOpCl=  0 I1Cent=           0 NGrid=           0
         NMat0=    1 NMatS0=      1 NMatT0=    0 NMatD0=    1 NMtDS0=    0 NMtDT0=    0
 Symmetry not used in FoFCou.
 End of G2Drv F.D. properties file   721 does not exist.
 End of G2Drv F.D. properties file   722 does not exist.
 End of G2Drv F.D. properties file   788 does not exist.
 Leave Link 1110 at Wed May 11 22:09:02 2022, MaxMem= 67108864000 cpu:              14.8 elap:               0.6
 (Enter /cm/shared/apps/gaussian/intel/EM64T/SSE4_2-enabled/binary//g16/l1112.exe)
 MP22nd: MDV=   67108864000
 This link is doing NAtomX=    19 total of    60 degrees of freedom.
 Using ON3 I/O method in MakUI.
 Using Ix for Sx.
 Using OV2 memory method for fx*t*t/D, MaxI=    33 DoOO2=F NP=  28.
 R2 and R3 integrals will be kept in memory, NReq=    71415045.
 FoFCou: FMM=F IPFlag=           0 FMFlag=           0 FMFlg1=           0
         NFxFlg=           0 DoJE=F BraDBF=F KetDBF=F FulRan=T
         wScrn=  0.000000 ICntrl=       600 IOpCl=  0 I1Cent=           0 NGrid=           0
         NMat0=    1 NMatS0=      1 NMatT0=    0 NMatD0=    1 NMtDS0=    0 NMtDT0=    0
 Symmetry not used in FoFCou.
 DD1Dir will call FoFMem   1 times, MxPair=      1122
 NAB=   561 NAA=     0 NBB=     0.
 Symmetry is being used.
 FoFJK:  IHMeth= 1 ICntrl=       0 DoSepK=F KAlg= 0 I1Cent=           0 FoldK=F
 IRaf=         0 NMat=      60 IRICut=     150 DoRegI=T DoRafI=T ISym2E= 2 IDoP0=0 IntGTp=1.
 Discarding MO integrals.
 Leave Link 1112 at Wed May 11 22:09:35 2022, MaxMem= 67108864000 cpu:             916.2 elap:              32.9
 (Enter /cm/shared/apps/gaussian/intel/EM64T/SSE4_2-enabled/binary//g16/l601.exe)
 Copying SCF densities to generalized density rwf, IOpCl= 0 IROHF=0.

 **********************************************************************

            Population analysis using the SCF density.

 **********************************************************************

 Orbital symmetries:
       Occupied  (A) (A) (A) (A) (A) (A) (A) (A) (A) (A) (A) (A)
                 (A) (A) (A) (A) (A) (A) (A) (A) (A) (A) (A) (A)
                 (A) (A) (A) (A) (A) (A) (A) (A) (A)
       Virtual   (A) (A) (A) (A) (A) (A) (A) (A) (A) (A) (A) (A)
                 (A) (A) (A) (A) (A) (A) (A) (A) (A) (A) (A) (A)
                 (A) (A) (A) (A) (A) (A) (A) (A) (A) (A) (A) (A)
                 (A) (A) (A) (A) (A) (A) (A) (A) (A) (A) (A) (A)
                 (A) (A) (A) (A) (A) (A) (A) (A) (A) (A) (A) (A)
                 (A) (A) (A) (A) (A) (A) (A) (A) (A) (A) (A) (A)
                 (A) (A) (A) (A) (A) (A) (A) (A) (A) (A) (A) (A)
                 (A) (A) (A) (A) (A) (A) (A) (A) (A) (A) (A) (A)
 The electronic state is 1-A.
 Alpha  occ. eigenvalues --   -5.39837  -3.39693  -3.39524  -3.39480  -1.69175
 Alpha  occ. eigenvalues --   -1.68976  -1.67807  -1.67687  -1.67252  -1.67070
 Alpha  occ. eigenvalues --   -1.05800  -1.04311  -1.03213  -1.02932  -1.02604
 Alpha  occ. eigenvalues --   -1.02497  -1.01975  -1.00321  -0.99061  -0.97465
 Alpha  occ. eigenvalues --   -0.96420  -0.94171  -0.92031  -0.90153  -0.88308
 Alpha  occ. eigenvalues --   -0.87520  -0.86435  -0.84491  -0.83042  -0.82728
 Alpha  occ. eigenvalues --   -0.82645  -0.81714  -0.78874
 Alpha virt. eigenvalues --   -0.25655  -0.17290  -0.16422  -0.16141  -0.15887
 Alpha virt. eigenvalues --   -0.10832  -0.10141  -0.09280  -0.07779  -0.06527
 Alpha virt. eigenvalues --   -0.05943  -0.05090  -0.04519  -0.03471  -0.02615
 Alpha virt. eigenvalues --   -0.01596  -0.00776  -0.00221   0.00636   0.01581
 Alpha virt. eigenvalues --    0.01901   0.02919   0.03725   0.04220   0.04899
 Alpha virt. eigenvalues --    0.05612   0.06109   0.07024   0.08141   0.09868
 Alpha virt. eigenvalues --    0.11376   0.12656   0.13217   0.13764   0.14731
 Alpha virt. eigenvalues --    0.15589   0.16061   0.17947   0.19390   0.20553
 Alpha virt. eigenvalues --    0.20886   0.21821   0.22674   0.23900   0.37259
 Alpha virt. eigenvalues --    0.66307   0.69232   0.71932   0.74388   0.81900
 Alpha virt. eigenvalues --    1.02593   1.03629   1.05514   1.06479   1.08429
 Alpha virt. eigenvalues --    1.08870   1.10796   1.11462   1.11931   1.12471
 Alpha virt. eigenvalues --    1.13214   1.13341   1.14784   1.15819   1.17072
 Alpha virt. eigenvalues --    1.17444   1.18394   1.19113   1.19948   1.20345
 Alpha virt. eigenvalues --    1.21692   1.22211   1.23795   1.26847   1.29262
 Alpha virt. eigenvalues --    1.32009   1.33453   1.39441   1.40506   1.41218
 Alpha virt. eigenvalues --    1.42907   1.47761   1.49177   1.54491   2.18920
 Alpha virt. eigenvalues --    2.35585   2.42023   2.46833   2.57582   2.77991
 Alpha virt. eigenvalues --    4.28456  15.50913  41.67104  41.72716  41.78113
 Alpha virt. eigenvalues --   81.48685
          Condensed to atoms (all electrons):
               1          2          3          4          5          6
     1  Hg  18.388980   0.048979  -0.001949  -0.005117   0.071252  -0.000181
     2  O    0.048979   6.401945   0.254447   0.255636  -0.007706  -0.000223
     3  H   -0.001949   0.254447   0.240658  -0.014745  -0.000183   0.000003
     4  H   -0.005117   0.255636  -0.014745   0.243346   0.001209  -0.000005
     5  O    0.071252  -0.007706  -0.000183   0.001209   6.454085   0.249433
     6  H   -0.000181  -0.000223   0.000003  -0.000005   0.249433   0.241967
     7  H   -0.003710   0.000141  -0.000000  -0.000001   0.227006  -0.011963
     8  O    0.041558  -0.012871   0.000286   0.000520  -0.000758   0.000004
     9  H   -0.002688   0.002505   0.000001  -0.000024  -0.000059   0.000000
    10  H   -0.003793   0.000251  -0.000001  -0.000001  -0.000070   0.000000
    11  O    0.051195  -0.011688   0.001976   0.000297  -0.001107  -0.000142
    12  H   -0.003008   0.000545  -0.000020  -0.000001  -0.000018   0.000001
    13  H   -0.002701   0.000190   0.000005  -0.000001   0.000008   0.000000
    14  O   -0.005435  -0.000005   0.000001   0.000002  -0.023163   0.000791
    15  H    0.000346  -0.000000   0.000000   0.000000  -0.000054  -0.000006
    16  H    0.000747  -0.000001  -0.000000  -0.000000   0.000153  -0.000011
    17  O    0.059871  -0.000223  -0.000013  -0.000022  -0.007531   0.000041
    18  H   -0.003902  -0.000019   0.000000   0.000000   0.000138   0.000010
    19  H    0.000004  -0.000024   0.000000   0.000000  -0.000020  -0.000002
               7          8          9         10         11         12
     1  Hg  -0.003710   0.041558  -0.002688  -0.003793   0.051195  -0.003008
     2  O    0.000141  -0.012871   0.002505   0.000251  -0.011688   0.000545
     3  H   -0.000000   0.000286   0.000001  -0.000001   0.001976  -0.000020
     4  H   -0.000001   0.000520  -0.000024  -0.000001   0.000297  -0.000001
     5  O    0.227006  -0.000758  -0.000059  -0.000070  -0.001107  -0.000018
     6  H   -0.011963   0.000004   0.000000   0.000000  -0.000142   0.000001
     7  H    0.194495   0.000053  -0.000000   0.000000   0.000049   0.000000
     8  O    0.000053   6.410094   0.253177   0.255766  -0.008370   0.000247
     9  H   -0.000000   0.253177   0.238837  -0.014954   0.000227  -0.000000
    10  H    0.000000   0.255766  -0.014954   0.240731   0.000420  -0.000000
    11  O    0.000049  -0.008370   0.000227   0.000420   6.400546   0.253766
    12  H    0.000000   0.000247  -0.000000  -0.000000   0.253766   0.240021
    13  H   -0.000000   0.001801   0.000003  -0.000016   0.253795  -0.014507
    14  O    0.021861  -0.000007   0.000002  -0.000001   0.000045   0.000001
    15  H   -0.000443   0.000000   0.000000  -0.000000   0.000000  -0.000000
    16  H   -0.000323   0.000003  -0.000000  -0.000000  -0.000000  -0.000000
    17  O    0.000401  -0.009282   0.000145   0.001406  -0.005469   0.000119
    18  H   -0.000016   0.000379  -0.000000  -0.000006   0.000030   0.000000
    19  H    0.000014  -0.000069  -0.000000   0.000006  -0.000017  -0.000001
              13         14         15         16         17         18
     1  Hg  -0.002701  -0.005435   0.000346   0.000747   0.059871  -0.003902
     2  O    0.000190  -0.000005  -0.000000  -0.000001  -0.000223  -0.000019
     3  H    0.000005   0.000001   0.000000  -0.000000  -0.000013   0.000000
     4  H   -0.000001   0.000002   0.000000  -0.000000  -0.000022   0.000000
     5  O    0.000008  -0.023163  -0.000054   0.000153  -0.007531   0.000138
     6  H    0.000000   0.000791  -0.000006  -0.000011   0.000041   0.000010
     7  H   -0.000000   0.021861  -0.000443  -0.000323   0.000401  -0.000016
     8  O    0.001801  -0.000007   0.000000   0.000003  -0.009282   0.000379
     9  H    0.000003   0.000002   0.000000  -0.000000   0.000145  -0.000000
    10  H   -0.000016  -0.000001  -0.000000  -0.000000   0.001406  -0.000006
    11  O    0.253795   0.000045   0.000000  -0.000000  -0.005469   0.000030
    12  H   -0.014507   0.000001  -0.000000  -0.000000   0.000119   0.000000
    13  H    0.234281  -0.000000  -0.000000   0.000000   0.000113  -0.000000
    14  O   -0.000000   6.454602   0.263167   0.264583  -0.019867   0.014910
    15  H   -0.000000   0.263167   0.241784  -0.015083  -0.000030  -0.000249
    16  H    0.000000   0.264583  -0.015083   0.236068   0.000119  -0.000134
    17  O    0.000113  -0.019867  -0.000030   0.000119   6.452717   0.235688
    18  H   -0.000000   0.014910  -0.000249  -0.000134   0.235688   0.205420
    19  H   -0.000005   0.000700  -0.000004  -0.000008   0.251501  -0.012597
              19
     1  Hg   0.000004
     2  O   -0.000024
     3  H    0.000000
     4  H    0.000000
     5  O   -0.000020
     6  H   -0.000002
     7  H    0.000014
     8  O   -0.000069
     9  H   -0.000000
    10  H    0.000006
    11  O   -0.000017
    12  H   -0.000001
    13  H   -0.000005
    14  O    0.000700
    15  H   -0.000004
    16  H   -0.000008
    17  O    0.251501
    18  H   -0.012597
    19  H    0.244560
 Mulliken charges:
               1
     1  Hg   1.369553
     2  O   -0.931880
     3  H    0.519533
     4  H    0.518905
     5  O   -0.962617
     6  H    0.520283
     7  H    0.572433
     8  O   -0.932531
     9  H    0.522826
    10  H    0.520260
    11  O   -0.935555
    12  H    0.522856
    13  H    0.527034
    14  O   -0.972187
    15  H    0.510573
    16  H    0.513886
    17  O   -0.959684
    18  H    0.560348
    19  H    0.515962
 Sum of Mulliken charges =   2.00000
 Mulliken charges with hydrogens summed into heavy atoms:
               1
     1  Hg   1.369553
     2  O    0.106558
     5  O    0.130100
     8  O    0.110555
    11  O    0.114336
    14  O    0.052271
    17  O    0.116627
         Mulliken charges condensed to fragments:
      1      1.369553
      2      0.630447
 APT charges:
               1
     1  Hg   1.869090
     2  O   -0.706257
     3  H    0.359800
     4  H    0.359395
     5  O   -0.820753
     6  H    0.351544
     7  H    0.527381
     8  O   -0.711198
     9  H    0.363909
    10  H    0.361558
    11  O   -0.717049
    12  H    0.363784
    13  H    0.366294
    14  O   -0.757289
    15  H    0.373615
    16  H    0.379067
    17  O   -0.797392
    18  H    0.484948
    19  H    0.349553
 Sum of APT charges =   2.00000
 APT charges with hydrogens summed into heavy atoms:
               1
     1  Hg   1.869090
     2  O    0.012939
     5  O    0.058172
     8  O    0.014269
    11  O    0.013028
    14  O   -0.004607
    17  O    0.037109
         APT charges condensed to fragments:
      1      1.869090
      2      0.130910
 Electronic spatial extent (au):  <R**2>=           1392.9310
 Charge=              2.0000 electrons
 Dipole moment (field-independent basis, Debye):
    X=              3.8519    Y=              0.1569    Z=              2.4388  Tot=              4.5617
 Quadrupole moment (field-independent basis, Debye-Ang):
   XX=              7.4345   YY=            -28.7784   ZZ=            -32.1495
   XY=             -0.9162   XZ=              2.0667   YZ=             -0.6178
 Traceless Quadrupole moment (field-independent basis, Debye-Ang):
   XX=             25.2656   YY=            -10.9473   ZZ=            -14.3184
   XY=             -0.9162   XZ=              2.0667   YZ=             -0.6178
 Octapole moment (field-independent basis, Debye-Ang**2):
  XXX=            146.2352  YYY=             19.2010  ZZZ=              8.1880  XYY=            -22.0344
  XXY=              9.1883  XXZ=             10.1677  XZZ=            -28.2085  YZZ=            -21.0748
  YYZ=              6.2872  XYZ=              6.7014
 Hexadecapole moment (field-independent basis, Debye-Ang**3):
 XXXX=            -81.4484 YYYY=           -251.9323 ZZZZ=           -115.7951 XXXY=              2.5191
 XXXZ=            -20.9262 YYYX=            -46.7007 YYYZ=             -9.7389 ZZZX=            -13.4028
 ZZZY=             12.4137 XXYY=           -159.9962 XXZZ=           -117.1556 YYZZ=            -60.2113
 XXYZ=            -17.3234 YYXZ=             33.4284 ZZXY=             35.4884
 N-N= 3.645031052618D+02 E-N=-1.273761744785D+03  KE= 1.321387500216D+02
  Exact polarizability:  62.387   0.095  53.734  -0.913  -0.033  48.934
 Approx polarizability:  36.374  -0.067  34.006  -0.684   0.041  33.909
 No NMR shielding tensors so no spin-rotation constants.
 Leave Link  601 at Wed May 11 22:09:35 2022, MaxMem= 67108864000 cpu:               4.2 elap:               0.2
 (Enter /cm/shared/apps/gaussian/intel/EM64T/SSE4_2-enabled/binary//g16/l701.exe)
 ... and contract with generalized density number  2.
 Compute integral second derivatives.
   1 Symmetry operations used in ECPInt.
 ECPInt:  NShTT=    2346 NPrTT=    7709 LenC2=    2336 LenP2D=    6159.
 LDataN:  DoStor=T MaxTD1= 9 Len=  602
 Leave Link  701 at Wed May 11 22:09:36 2022, MaxMem= 67108864000 cpu:              38.6 elap:               1.4
 (Enter /cm/shared/apps/gaussian/intel/EM64T/SSE4_2-enabled/binary//g16/l702.exe)
 L702 exits ... SP integral derivatives will be done elsewhere.
 Leave Link  702 at Wed May 11 22:09:36 2022, MaxMem= 67108864000 cpu:               0.6 elap:               0.0
 (Enter /cm/shared/apps/gaussian/intel/EM64T/SSE4_2-enabled/binary//g16/l703.exe)
 Integral derivatives from FoFJK, PRISM(SPDF).
 Compute integral second derivatives, UseDBF=F ICtDFT=           0.
 Calling FoFJK, ICntrl=  10100127 FMM=F ISym2X=0 I1Cent= 0 IOpClX= 0 NMat=1 NMatS=1 NMatT=0.
 FoFJK:  IHMeth= 1 ICntrl=10100127 DoSepK=F KAlg= 0 I1Cent=           0 FoldK=F
 IRaf=         0 NMat=       1 IRICut=       1 DoRegI=T DoRafI=F ISym2E= 0 IDoP0=0 IntGTp=1.
 FoFCou: FMM=F IPFlag=           0 FMFlag=      100000 FMFlg1=         800
         NFxFlg=           0 DoJE=F BraDBF=F KetDBF=F FulRan=T
         wScrn=  0.000000 ICntrl=  10100127 IOpCl=  0 I1Cent=           0 NGrid=           0
         NMat0=    1 NMatS0=      1 NMatT0=    0 NMatD0=    1 NMtDS0=    0 NMtDT0=    0
 Symmetry not used in FoFCou.
 Leave Link  703 at Wed May 11 22:09:37 2022, MaxMem= 67108864000 cpu:              22.9 elap:               0.8
 (Enter /cm/shared/apps/gaussian/intel/EM64T/SSE4_2-enabled/binary//g16/l716.exe)
 Dipole        = 1.47501109D+00 4.41626418D-02 8.62796203D-01
 Polarizability= 6.23872319D+01 9.48228107D-02 5.37340459D+01
                -9.13338260D-01-3.29149414D-02 4.89344400D+01
 Full mass-weighted force constant matrix:
 Low frequencies --- -328.5357 -303.8855 -275.9798 -196.8904  -97.5308  -93.2265
 Low frequencies ---  -80.9635  -66.1178  -39.4731
 ******    8 imaginary frequencies (negative Signs) ****** 
 Diagonal vibrational polarizability:
      268.3962607     766.8539639     706.9403463
 Harmonic frequencies (cm**-1), IR intensities (KM/Mole), Raman scattering
 activities (A**4/AMU), depolarization ratios for plane and unpolarized
 incident light, reduced masses (AMU), force constants (mDyne/A),
 and normal coordinates:
                      1                      2                      3
                      A                      A                      A
 Frequencies --   -327.8664              -302.9462              -275.2793
 Red. masses --      1.0248                 1.0372                 1.0261
 Frc consts  --      0.0649                 0.0561                 0.0458
 IR Inten    --     37.7807                27.0912                15.7001
  Atom  AN      X      Y      Z        X      Y      Z        X      Y      Z
     1  80    -0.00   0.00   0.00    -0.00  -0.00   0.00     0.00   0.00  -0.00
     2   8     0.02   0.01  -0.01     0.02   0.00  -0.02    -0.00  -0.00  -0.00
     3   1    -0.23  -0.24  -0.21    -0.24  -0.27  -0.21     0.05   0.04   0.04
     4   1     0.10   0.15   0.31     0.12   0.17   0.37    -0.06  -0.04  -0.10
     5   8     0.00   0.00   0.00    -0.00   0.01  -0.00     0.01  -0.01   0.02
     6   1     0.02  -0.01   0.02     0.01  -0.02   0.03    -0.07   0.11  -0.13
     7   1     0.00  -0.01  -0.02    -0.00   0.00  -0.02     0.00  -0.01   0.22
     8   8     0.00  -0.00   0.00    -0.02   0.02  -0.00     0.00  -0.01   0.01
     9   1    -0.04   0.00   0.05     0.39   0.17  -0.30     0.03  -0.02  -0.03
    10   1     0.02   0.05  -0.05    -0.18  -0.35   0.31    -0.00  -0.05   0.07
    11   8    -0.01  -0.01  -0.01     0.00   0.00   0.01    -0.00   0.01  -0.00
    12   1    -0.30   0.51   0.04     0.11  -0.19  -0.01    -0.05   0.08   0.01
    13   1     0.42  -0.35   0.22    -0.16   0.13  -0.07     0.05  -0.03   0.02
    14   8    -0.00  -0.00  -0.01    -0.00   0.01  -0.01     0.00  -0.00  -0.01
    15   1    -0.00   0.00  -0.01    -0.01  -0.02  -0.00    -0.02  -0.59   0.03
    16   1     0.00  -0.01  -0.01     0.02   0.04  -0.00     0.02   0.61   0.02
    17   8    -0.00  -0.00  -0.00     0.00  -0.00   0.01    -0.01  -0.01  -0.01
    18   1    -0.00  -0.00  -0.01     0.00   0.01  -0.05    -0.00  -0.02  -0.28
    19   1    -0.00   0.01   0.01     0.04   0.05   0.08     0.09   0.16   0.19
                      4                      5                      6
                      A                      A                      A
 Frequencies --   -185.9450               -92.5156               -80.7109
 Red. masses --      1.1159                 2.6904                 3.0365
 Frc consts  --      0.0227                 0.0136                 0.0117
 IR Inten    --      6.6853                10.8549                 3.6055
  Atom  AN      X      Y      Z        X      Y      Z        X      Y      Z
     1  80    -0.00   0.00  -0.00     0.01  -0.00  -0.01    -0.00   0.03  -0.01
     2   8     0.02   0.02  -0.02    -0.08  -0.05   0.07    -0.08  -0.01   0.19
     3   1    -0.23  -0.20  -0.23    -0.09  -0.21   0.11    -0.04  -0.18   0.29
     4   1     0.19   0.17   0.36    -0.21   0.03   0.15    -0.27   0.06   0.22
     5   8     0.00  -0.00  -0.00     0.01  -0.02  -0.15     0.04  -0.03  -0.11
     6   1     0.00   0.01  -0.01    -0.02   0.16  -0.37     0.10   0.02  -0.16
     7   1    -0.00  -0.01   0.03     0.00  -0.03  -0.01     0.03  -0.06  -0.14
     8   8     0.04  -0.05   0.00    -0.08   0.05   0.00     0.13  -0.08  -0.01
     9   1    -0.30  -0.21   0.22    -0.05   0.16   0.04     0.12  -0.27  -0.13
    10   1     0.27   0.32  -0.25    -0.18   0.02  -0.05     0.30  -0.06   0.13
    11   8     0.01   0.01   0.04     0.04   0.04   0.06    -0.04  -0.09  -0.08
    12   1     0.24  -0.25  -0.00     0.13   0.08   0.05    -0.13  -0.17  -0.07
    13   1    -0.21   0.17  -0.03     0.03   0.03   0.14     0.02  -0.09  -0.20
    14   8    -0.00  -0.01   0.00     0.02   0.00   0.21     0.01  -0.09  -0.02
    15   1    -0.00  -0.15   0.01    -0.19  -0.03   0.41    -0.11  -0.01   0.09
    16   1    -0.00   0.13   0.01     0.26   0.03   0.36     0.15  -0.20   0.06
    17   8    -0.01   0.01  -0.01     0.01   0.02  -0.10    -0.05  -0.05   0.09
    18   1    -0.00  -0.01  -0.02     0.01   0.02   0.00    -0.03  -0.08  -0.08
    19   1    -0.02  -0.03  -0.05    -0.01  -0.13  -0.27    -0.03   0.17   0.36
                      7                      8                      9
                      A                      A                      A
 Frequencies --    -65.8586               -47.9623                25.8188
 Red. masses --      1.8937                 3.0245                 3.0939
 Frc consts  --      0.0048                 0.0041                 0.0012
 IR Inten    --     27.2606                15.5502                20.2338
  Atom  AN      X      Y      Z        X      Y      Z        X      Y      Z
     1  80    -0.02   0.00   0.01    -0.02  -0.00  -0.03    -0.00  -0.03  -0.02
     2   8     0.12   0.10  -0.03    -0.00   0.02   0.08     0.04   0.06   0.04
     3   1     0.12   0.31  -0.10     0.08   0.06   0.15     0.04   0.11   0.03
     4   1     0.29  -0.01  -0.14    -0.06  -0.02  -0.02     0.12   0.04   0.06
     5   8    -0.02   0.02  -0.08    -0.01   0.00   0.12    -0.03   0.03  -0.07
     6   1     0.07  -0.12   0.09     0.01  -0.14   0.29    -0.02   0.01  -0.05
     7   1    -0.02   0.02  -0.27    -0.01   0.01  -0.00    -0.03   0.04  -0.10
     8   8     0.01  -0.05   0.03     0.16  -0.05  -0.08    -0.03   0.15  -0.11
     9   1     0.04  -0.13  -0.05     0.27  -0.17  -0.28    -0.16   0.23   0.07
    10   1     0.07  -0.08   0.12     0.24  -0.17   0.16    -0.10   0.25  -0.30
    11   8     0.04  -0.08  -0.00     0.10   0.13   0.18     0.08  -0.04   0.08
    12   1    -0.03  -0.06   0.01     0.24   0.35   0.16     0.16  -0.01   0.07
    13   1     0.08  -0.10  -0.04     0.05   0.09   0.45     0.03  -0.03   0.16
    14   8     0.02   0.02   0.01    -0.01  -0.02   0.03     0.00   0.04  -0.02
    15   1    -0.32   0.08   0.32    -0.06   0.05   0.08    -0.11   0.03   0.08
    16   1     0.42  -0.03   0.25     0.06  -0.09   0.07     0.13   0.07   0.06
    17   8    -0.00  -0.01  -0.09    -0.01  -0.03  -0.04     0.00   0.00   0.24
    18   1    -0.01   0.01  -0.26    -0.02  -0.01  -0.02     0.01  -0.00  -0.04
    19   1     0.09   0.12   0.07    -0.01  -0.01  -0.01     0.07   0.31   0.61
                     10                     11                     12
                      A                      A                      A
 Frequencies --     52.6087                72.1353                91.9154
 Red. masses --      2.7214                 5.5545                 2.3197
 Frc consts  --      0.0044                 0.0170                 0.0115
 IR Inten    --     20.1561                 0.6939                20.2071
  Atom  AN      X      Y      Z        X      Y      Z        X      Y      Z
     1  80     0.02   0.01  -0.04     0.00  -0.05   0.00    -0.00   0.00  -0.02
     2   8    -0.03  -0.02   0.06     0.12   0.11   0.22     0.10   0.13   0.09
     3   1    -0.00  -0.09   0.11     0.16   0.05   0.28     0.09   0.15   0.07
     4   1    -0.05   0.02   0.12     0.09   0.15   0.27     0.12   0.11   0.06
     5   8    -0.00   0.04   0.16    -0.03   0.04  -0.06    -0.00   0.00  -0.00
     6   1     0.07  -0.26   0.52    -0.07   0.04  -0.06    -0.15   0.24  -0.29
     7   1     0.01   0.05  -0.11    -0.01   0.10  -0.07    -0.01   0.01   0.31
     8   8    -0.15  -0.07   0.15     0.00  -0.05  -0.01    -0.05  -0.09   0.06
     9   1    -0.28  -0.09   0.26    -0.03  -0.09  -0.01     0.01  -0.13  -0.03
    10   1    -0.19  -0.02   0.06     0.04  -0.01  -0.02    -0.06  -0.18   0.16
    11   8    -0.00   0.00  -0.02    -0.26   0.27  -0.10     0.06  -0.09   0.01
    12   1    -0.01  -0.07  -0.02    -0.31   0.26  -0.09     0.07  -0.05   0.01
    13   1    -0.00   0.02  -0.08    -0.30   0.30  -0.12     0.10  -0.12   0.04
    14   8     0.02   0.01   0.02     0.04   0.12  -0.04    -0.05   0.02   0.10
    15   1    -0.20   0.04   0.23     0.00   0.13  -0.01     0.28  -0.02  -0.20
    16   1     0.28  -0.03   0.18     0.08   0.15  -0.02    -0.43   0.05  -0.14
    17   8    -0.00  -0.01   0.04     0.08   0.09  -0.03     0.00   0.03   0.05
    18   1     0.00  -0.02  -0.12     0.06   0.16  -0.07    -0.01   0.03   0.30
    19   1     0.04   0.16   0.25     0.17   0.09  -0.03    -0.10  -0.15  -0.17
                     13                     14                     15
                      A                      A                      A
 Frequencies --    111.3755               151.6557               221.7296
 Red. masses --      6.6451                 5.6107                 5.6491
 Frc consts  --      0.0486                 0.0760                 0.1636
 IR Inten    --      1.7868                 0.2425                 2.0744
  Atom  AN      X      Y      Z        X      Y      Z        X      Y      Z
     1  80    -0.06   0.01  -0.01    -0.00  -0.01   0.00     0.00  -0.03  -0.00
     2   8    -0.03   0.01  -0.02     0.07  -0.13   0.01    -0.24   0.26  -0.07
     3   1    -0.04   0.01  -0.03     0.09  -0.09   0.02    -0.25   0.22  -0.07
     4   1    -0.03   0.01  -0.01     0.07  -0.16  -0.05    -0.23   0.31   0.02
     5   8     0.19  -0.23   0.04    -0.01   0.27  -0.00    -0.15   0.02   0.02
     6   1     0.25  -0.15  -0.05    -0.04   0.22   0.06    -0.22   0.05  -0.02
     7   1     0.18  -0.25   0.07    -0.03   0.30   0.00    -0.14   0.08   0.04
     8   8    -0.04  -0.01  -0.00    -0.03  -0.05  -0.08     0.11   0.10   0.16
     9   1    -0.03  -0.01  -0.01    -0.01  -0.03  -0.09     0.09   0.06   0.16
    10   1    -0.06  -0.03   0.01    -0.06  -0.08  -0.07     0.14   0.10   0.19
    11   8     0.00  -0.05   0.02    -0.02  -0.04   0.04     0.08   0.04  -0.10
    12   1     0.05  -0.03   0.01    -0.03  -0.04   0.04     0.08   0.04  -0.10
    13   1     0.00  -0.06   0.06     0.01  -0.05   0.03     0.05   0.06  -0.10
    14   8     0.38  -0.01  -0.01    -0.03  -0.31  -0.00    -0.04  -0.18   0.01
    15   1     0.46  -0.01  -0.09    -0.04  -0.36   0.02    -0.04  -0.12   0.01
    16   1     0.27  -0.00  -0.07     0.00  -0.33   0.01    -0.03  -0.20   0.01
    17   8     0.19   0.21   0.04     0.01   0.32  -0.01     0.21   0.03  -0.00
    18   1     0.18   0.23   0.06     0.01   0.38  -0.05     0.17   0.13  -0.06
    19   1     0.23   0.15  -0.03     0.08   0.27  -0.07     0.32   0.08   0.07
                     16                     17                     18
                      A                      A                      A
 Frequencies --    258.3941               291.7073               303.9910
 Red. masses --      6.6291                 4.9494                 6.2499
 Frc consts  --      0.2608                 0.2481                 0.3403
 IR Inten    --      8.3557                30.5960                34.1861
  Atom  AN      X      Y      Z        X      Y      Z        X      Y      Z
     1  80    -0.00  -0.00   0.04    -0.01  -0.01   0.00    -0.05   0.03  -0.00
     2   8    -0.08   0.06   0.01    -0.04   0.02  -0.00     0.24  -0.25   0.10
     3   1    -0.11   0.01  -0.00    -0.05   0.02  -0.02     0.17  -0.29   0.04
     4   1    -0.10   0.08   0.05    -0.02   0.02   0.00     0.18  -0.25   0.06
     5   8    -0.00  -0.03   0.03    -0.05   0.28  -0.03    -0.10  -0.01  -0.01
     6   1     0.02  -0.08   0.09    -0.18   0.25   0.01    -0.14   0.03  -0.06
     7   1     0.00  -0.02  -0.04    -0.04   0.34   0.10    -0.10  -0.01   0.08
     8   8    -0.17  -0.22  -0.25    -0.00   0.01   0.01     0.01   0.10   0.07
     9   1    -0.13  -0.18  -0.26    -0.01  -0.01   0.00    -0.08   0.05   0.13
    10   1    -0.10  -0.13  -0.28     0.02   0.01   0.03     0.06   0.17   0.02
    11   8     0.32   0.15  -0.27     0.03   0.01  -0.03     0.14   0.08  -0.14
    12   1     0.25   0.24  -0.26    -0.00   0.02  -0.03     0.17   0.03  -0.15
    13   1     0.27   0.17  -0.25     0.01   0.03  -0.04     0.14   0.09  -0.16
    14   8    -0.02   0.02  -0.01     0.35  -0.02   0.03    -0.04  -0.07   0.04
    15   1    -0.07  -0.01   0.04     0.55  -0.02  -0.16     0.08  -0.00  -0.08
    16   1     0.05   0.04   0.03     0.11  -0.03  -0.11    -0.18  -0.07  -0.05
    17   8    -0.05   0.04   0.04    -0.10  -0.20  -0.03     0.27  -0.18  -0.03
    18   1    -0.03   0.01  -0.01    -0.07  -0.26   0.08     0.21  -0.03  -0.04
    19   1    -0.05   0.02   0.02    -0.22  -0.15   0.03     0.36   0.01   0.21
                     19                     20                     21
                      A                      A                      A
 Frequencies --    319.4895               330.1682               359.5503
 Red. masses --      4.6519                 1.3155                 5.6520
 Frc consts  --      0.2798                 0.0845                 0.4305
 IR Inten    --     55.4616                75.2448                 8.9146
  Atom  AN      X      Y      Z        X      Y      Z        X      Y      Z
     1  80     0.02   0.03   0.01     0.00  -0.01   0.00    -0.02  -0.02   0.00
     2   8    -0.03   0.06  -0.04     0.01  -0.01  -0.02    -0.10   0.04  -0.02
     3   1    -0.06   0.01  -0.06    -0.01  -0.07  -0.02    -0.06   0.17  -0.01
     4   1    -0.11   0.07  -0.08    -0.05   0.02   0.00     0.08   0.01   0.03
     5   8    -0.12  -0.03   0.04     0.04  -0.02   0.05     0.40   0.23  -0.05
     6   1    -0.19   0.21  -0.24    -0.03   0.30  -0.33     0.50  -0.05   0.28
     7   1    -0.09   0.04   0.13     0.04   0.02   0.20     0.30  -0.00  -0.04
     8   8    -0.15  -0.15  -0.20     0.00   0.02   0.03    -0.02  -0.02  -0.02
     9   1    -0.17  -0.18  -0.20    -0.05  -0.07   0.02    -0.05  -0.04  -0.02
    10   1    -0.07  -0.08  -0.20     0.08   0.06   0.05    -0.01  -0.01  -0.01
    11   8    -0.15  -0.04   0.16     0.03   0.02  -0.01    -0.01  -0.00   0.01
    12   1    -0.10  -0.06   0.15     0.01   0.00  -0.01    -0.06  -0.00   0.02
    13   1    -0.10  -0.08   0.16    -0.01   0.04  -0.03    -0.01   0.01  -0.02
    14   8     0.01  -0.06   0.01    -0.01   0.02   0.02    -0.15   0.05   0.06
    15   1     0.03   0.15  -0.02     0.07   0.34  -0.06     0.02   0.01  -0.10
    16   1    -0.01  -0.21  -0.01    -0.09  -0.30  -0.04    -0.35   0.03  -0.06
    17   8     0.20  -0.15  -0.05    -0.06   0.02  -0.08     0.16  -0.12  -0.04
    18   1     0.17  -0.06  -0.17    -0.07   0.06  -0.24     0.10   0.03  -0.02
    19   1     0.27   0.16   0.35    -0.02   0.46   0.45     0.22   0.06   0.19
                     22                     23                     24
                      A                      A                      A
 Frequencies --    420.6317               461.1994               476.4126
 Red. masses --      1.3872                 1.2145                 1.2138
 Frc consts  --      0.1446                 0.1522                 0.1623
 IR Inten    --      1.7937                62.6174                56.6157
  Atom  AN      X      Y      Z        X      Y      Z        X      Y      Z
     1  80    -0.01  -0.00  -0.00     0.00   0.00  -0.00     0.00  -0.00  -0.00
     2   8     0.03   0.02  -0.03    -0.06  -0.04   0.07    -0.02  -0.02   0.01
     3   1     0.09  -0.20   0.10    -0.25   0.47  -0.31    -0.08   0.07  -0.10
     4   1    -0.23   0.11  -0.01     0.57  -0.26  -0.00     0.10  -0.07  -0.02
     5   8     0.05   0.03   0.08     0.00  -0.01   0.04     0.00  -0.00   0.01
     6   1     0.06   0.44  -0.41     0.04   0.22  -0.22    -0.04   0.05  -0.05
     7   1     0.05   0.07   0.12    -0.01  -0.02   0.09     0.02   0.04   0.03
     8   8     0.00  -0.00   0.01     0.03  -0.01  -0.00    -0.07   0.07  -0.01
     9   1     0.02   0.03   0.01     0.01   0.09   0.09    -0.09  -0.41  -0.34
    10   1     0.00   0.01  -0.01    -0.17  -0.11  -0.06     0.43   0.16   0.33
    11   8    -0.01  -0.01  -0.02    -0.01   0.01  -0.02     0.03   0.02   0.04
    12   1     0.15   0.02  -0.04    -0.01   0.06  -0.02    -0.37  -0.12   0.10
    13   1    -0.01  -0.03   0.09    -0.07   0.03   0.03     0.15   0.04  -0.30
    14   8    -0.01   0.01  -0.09     0.00  -0.01  -0.02     0.00   0.01  -0.01
    15   1    -0.32   0.06   0.19    -0.08   0.03   0.06    -0.05  -0.01   0.04
    16   1     0.34  -0.07   0.13     0.10  -0.04   0.04     0.06   0.01   0.03
    17   8     0.02  -0.03   0.05     0.01  -0.01   0.01     0.00   0.00   0.03
    18   1     0.00  -0.01   0.04     0.02  -0.05   0.01    -0.02   0.05   0.07
    19   1     0.09  -0.28  -0.26    -0.04  -0.04  -0.03     0.05  -0.12  -0.12
                     25                     26                     27
                      A                      A                      A
 Frequencies --    489.0443               592.5752               617.3152
 Red. masses --      1.2112                 1.1219                 1.1448
 Frc consts  --      0.1707                 0.2321                 0.2570
 IR Inten    --     22.0036               166.4912               461.2312
  Atom  AN      X      Y      Z        X      Y      Z        X      Y      Z
     1  80     0.01   0.00   0.00     0.00   0.00   0.00     0.00   0.00   0.00
     2   8    -0.00  -0.01   0.01     0.01   0.01   0.03    -0.05  -0.03  -0.06
     3   1    -0.09   0.04  -0.10    -0.21  -0.01  -0.21     0.42   0.13   0.42
     4   1    -0.02  -0.07  -0.10    -0.11  -0.07  -0.18     0.40   0.11   0.43
     5   8     0.00   0.00  -0.01     0.02  -0.01  -0.01    -0.02  -0.00   0.00
     6   1    -0.01  -0.06   0.06    -0.25  -0.09   0.07     0.08   0.05  -0.05
     7   1     0.01   0.01  -0.03     0.11   0.18   0.05    -0.03  -0.03  -0.03
     8   8    -0.05   0.05   0.00     0.02   0.01  -0.01     0.01   0.02  -0.01
     9   1    -0.11  -0.31  -0.19    -0.09  -0.05   0.06    -0.13  -0.18  -0.03
    10   1     0.21   0.04   0.25    -0.12  -0.10  -0.00    -0.06  -0.12   0.10
    11   8    -0.04  -0.05  -0.07    -0.04   0.03   0.00    -0.03   0.02  -0.01
    12   1     0.46   0.30  -0.14     0.29  -0.22  -0.05     0.24  -0.08  -0.05
    13   1    -0.33  -0.02   0.51     0.34  -0.19  -0.06     0.22  -0.16   0.03
    14   8    -0.00   0.00   0.00     0.00   0.02   0.01     0.01   0.00   0.01
    15   1     0.02  -0.01  -0.02     0.04  -0.11  -0.02     0.04  -0.01  -0.02
    16   1    -0.02   0.01  -0.01    -0.03  -0.21  -0.01    -0.03  -0.02  -0.01
    17   8    -0.00   0.00   0.00    -0.04  -0.02   0.01    -0.01  -0.01   0.01
    18   1    -0.00   0.01  -0.00    -0.17   0.30  -0.15    -0.04   0.07  -0.07
    19   1     0.01   0.01   0.01     0.44  -0.10  -0.07     0.15  -0.03  -0.02
                     28                     29                     30
                      A                      A                      A
 Frequencies --    634.3202               641.5579               700.1140
 Red. masses --      1.1407                 1.1270                 1.1307
 Frc consts  --      0.2704                 0.2733                 0.3265
 IR Inten    --    500.1468               148.0689               259.4141
  Atom  AN      X      Y      Z        X      Y      Z        X      Y      Z
     1  80     0.00  -0.00  -0.00     0.00   0.00  -0.00     0.00   0.00  -0.00
     2   8    -0.01  -0.00   0.01    -0.02  -0.01  -0.01    -0.00  -0.00   0.00
     3   1    -0.00   0.09  -0.02     0.13   0.06   0.13    -0.00   0.01  -0.00
     4   1     0.06  -0.05  -0.04     0.14   0.02   0.13     0.01  -0.01   0.00
     5   8    -0.00   0.01   0.00     0.01  -0.02  -0.01     0.00   0.01  -0.01
     6   1     0.05   0.01  -0.00    -0.20  -0.04   0.01     0.00  -0.04   0.05
     7   1    -0.03  -0.05   0.00     0.10   0.18   0.03    -0.07  -0.14   0.14
     8   8    -0.05  -0.04   0.03    -0.03  -0.04   0.02    -0.00  -0.01   0.00
     9   1     0.41   0.35  -0.16     0.25   0.27  -0.04     0.04   0.06   0.01
    10   1     0.39   0.36  -0.08     0.21   0.24  -0.11     0.03   0.05  -0.04
    11   8    -0.04   0.03  -0.00     0.03  -0.03  -0.01     0.01  -0.01  -0.00
    12   1     0.35  -0.16  -0.06    -0.22   0.20   0.03    -0.10   0.07   0.02
    13   1     0.33  -0.22   0.01    -0.31   0.16   0.09    -0.11   0.06   0.02
    14   8    -0.00  -0.01  -0.00     0.00   0.04   0.00     0.01  -0.07   0.01
    15   1    -0.00   0.09  -0.00     0.02  -0.27  -0.01     0.03   0.61  -0.04
    16   1     0.00   0.09   0.00    -0.01  -0.31  -0.01    -0.07   0.41  -0.02
    17   8     0.00   0.01  -0.00    -0.02  -0.02   0.01    -0.04   0.00   0.03
    18   1     0.05  -0.10   0.02    -0.14   0.26  -0.06    -0.05   0.04  -0.36
    19   1    -0.13   0.05   0.05     0.32  -0.06  -0.03     0.42  -0.15  -0.14
                     31                     32                     33
                      A                      A                      A
 Frequencies --    742.1264               886.1409              1003.2039
 Red. masses --      1.1051                 1.0883                 1.0684
 Frc consts  --      0.3586                 0.5035                 0.6335
 IR Inten    --    223.8324               540.8126               294.5891
  Atom  AN      X      Y      Z        X      Y      Z        X      Y      Z
     1  80     0.00  -0.00  -0.00     0.00   0.00   0.00     0.00  -0.00   0.00
     2   8     0.01   0.01   0.01    -0.00   0.00  -0.00     0.00   0.00  -0.00
     3   1    -0.08  -0.02  -0.08     0.01   0.01   0.01     0.00  -0.00   0.00
     4   1    -0.09  -0.02  -0.10     0.02   0.00   0.01    -0.01   0.00  -0.00
     5   8    -0.06   0.01   0.03     0.00  -0.02   0.02    -0.01   0.03  -0.03
     6   1     0.70   0.17  -0.13    -0.01   0.05  -0.07     0.05  -0.10   0.14
     7   1    -0.17  -0.27  -0.37     0.11   0.23  -0.25    -0.27  -0.55   0.59
     8   8    -0.00  -0.00   0.00     0.00  -0.00  -0.00    -0.00  -0.00  -0.00
     9   1     0.02   0.02  -0.01     0.00   0.02   0.01    -0.00  -0.01  -0.00
    10   1     0.03   0.03  -0.01    -0.01  -0.00  -0.01    -0.00  -0.00   0.00
    11   8     0.00   0.00   0.00     0.00  -0.00  -0.00    -0.00   0.00  -0.00
    12   1    -0.02  -0.01   0.00     0.01   0.00  -0.00     0.01  -0.00  -0.00
    13   1    -0.01   0.01  -0.01    -0.01   0.00   0.01     0.00  -0.00   0.01
    14   8     0.01   0.02   0.03     0.00  -0.04  -0.01     0.01   0.01  -0.03
    15   1     0.12  -0.20  -0.07    -0.04   0.17   0.03    -0.10  -0.03   0.07
    16   1    -0.12  -0.07  -0.05     0.03   0.40   0.01     0.12  -0.11   0.04
    17   8    -0.02  -0.01   0.00    -0.01  -0.04  -0.04    -0.00  -0.01  -0.02
    18   1    -0.10   0.17  -0.06    -0.23   0.50   0.57    -0.13   0.28   0.30
    19   1     0.25  -0.04  -0.02     0.01   0.12   0.17     0.03   0.06   0.08
                     34                     35                     36
                      A                      A                      A
 Frequencies --   1716.4777              1717.5774              1723.1504
 Red. masses --      1.0899                 1.0888                 1.0869
 Frc consts  --      1.8920                 1.8925                 1.9015
 IR Inten    --    165.6901               176.1551                59.5489
  Atom  AN      X      Y      Z        X      Y      Z        X      Y      Z
     1  80     0.00   0.00  -0.00     0.00   0.00   0.00    -0.00   0.00   0.00
     2   8     0.03  -0.05  -0.01    -0.02   0.04   0.01     0.01  -0.02  -0.00
     3   1    -0.01   0.51  -0.15     0.00  -0.38   0.11    -0.00   0.22  -0.06
     4   1    -0.38   0.27   0.27     0.28  -0.20  -0.20    -0.16   0.11   0.11
     5   8     0.00   0.00   0.00     0.00   0.00   0.00    -0.00  -0.00  -0.00
     6   1    -0.01  -0.00  -0.00    -0.02   0.00  -0.00     0.00   0.00   0.00
     7   1    -0.00  -0.01  -0.01    -0.01  -0.01  -0.01     0.00   0.00   0.00
     8   8    -0.01  -0.01  -0.05    -0.01  -0.01  -0.05     0.00   0.01   0.02
     9   1    -0.13   0.26   0.35    -0.14   0.28   0.37     0.07  -0.13  -0.18
[...]
 5,0.03522641,0.00179364,0.00192851,-0.00230846,-0.03408877,-0.09588257
 ,-0.13380136,-0.00548744,-0.01302048,-0.04182355,0.03781570,0.10798652
 ,0.00062304,-0.00083536,-0.00166033,-0.03190717,-0.18433584,-0.4166851
 2,0.00822013,0.00820710,-0.00292477,0.02342264,0.17660925,0.42203056,-
 0.02790501,-0.00712931,-0.01851980,-0.00806122,0.00130271,0.00082415,0
 .00028552,0.00104156,0.00080257,0.00119608,-0.00123128,-0.00054821,0.4
 5501575,0.00155309,-0.00758240,0.00555766,-0.00055440,0.00161165,0.000
 14246,0.00047857,-0.00014674,-0.00007498,-0.00029240,-0.00092814,-0.00
 016434,0.06041924,0.30742059,-0.01961724,-0.00385037,-0.03544424,-0.00
 292369,0.00037855,0.00366600,-0.00036607,0.00042117,0.00004365,-0.0023
 6667,0.00009000,-0.00070998,-0.08032216,-0.26831546,0.34235273,0.00313
 106,0.00365994,-0.00427551,0.00001748,-0.00094622,0.00173087,-0.000705
 01,0.00013574,-0.00027106,-0.00123123,0.00095351,-0.00020467,-0.055572
 73,0.00088213,-0.00329230,0.05571917,-0.00042404,0.00154484,-0.0011650
 0,-0.00061946,-0.00026779,-0.00023318,-0.00006473,0.00018580,0.0000221
 3,0.00067822,0.00009682,0.00016558,-0.04034508,-0.26044933,0.24353574,
 0.03119626,0.26279694,-0.00288677,0.00461913,-0.00459229,0.00048581,-0
 .00043826,-0.00044382,-0.00014970,0.00005234,0.00012263,0.00023981,0.0
 0009244,0.00043639,0.03175428,0.22721807,-0.23354337,-0.02704701,-0.24
 597035,0.24360371,-0.00746575,0.00119019,-0.01007833,0.00204222,-0.000
 64636,0.00007297,-0.00038684,-0.00005140,-0.00023455,-0.00071160,0.000
 43535,0.00012032,-0.34858321,-0.05452091,0.09323319,0.00244843,0.00859
 050,-0.00358927,0.35185829,-0.00205989,0.00297325,-0.00398085,0.001041
 20,-0.00021981,0.00007488,-0.00010044,-0.00006484,-0.00008829,-0.00039
 652,0.00034476,0.00009304,-0.00782608,-0.04363307,0.02383594,-0.036442
 94,-0.00436124,0.01495903,0.04296684,0.05723573,-0.00956059,-0.0023807
 3,0.00509908,-0.00233280,0.00045779,0.00003801,0.00010584,0.00021048,0
 .00027302,0.00036546,-0.00025679,-0.00010567,0.05798798,0.03175351,-0.
 06717649,0.03318194,0.00544682,-0.00581029,-0.07603805,-0.03406516,0.0
 7607687,-0.01848100,0.00509441,-0.00738021,0.00286117,-0.00078898,0.00
 179723,-0.00041316,0.00021405,-0.00085838,-0.00052576,-0.00014287,0.00
 027963,0.00078915,0.00083728,-0.00110191,-0.00045013,-0.00013885,0.000
 24111,0.00024892,-0.00006790,0.00055621,0.47940520,0.01291501,-0.01934
 497,0.01766250,-0.00258653,0.00094708,0.00362473,0.00008669,0.00010834
 ,0.00009195,-0.00063842,-0.00098949,0.00043653,-0.00049838,0.00014290,
 -0.00039117,-0.00008423,-0.00017310,-0.00035563,-0.00030989,-0.0004166
 6,-0.00029126,-0.03736827,0.41702667,-0.00603744,0.00574694,-0.0196523
 2,0.00339332,0.00242514,-0.00372079,-0.00003971,-0.00045554,-0.0014893
 9,0.00052916,0.00044788,0.00004520,-0.00101805,0.00069482,-0.00000102,
 -0.00006561,-0.00010445,0.00023057,0.00090217,0.00027513,-0.00044486,-
 0.28453130,-0.09952297,0.26835579,-0.00145136,0.00509300,-0.00065897,-
 0.00223188,-0.00025465,-0.00015847,0.00047305,-0.00049545,0.00086124,0
 .00037704,0.00005271,0.00000381,0.00013902,-0.00031219,0.00027868,0.00
 012910,0.00007306,-0.00005574,-0.00017336,0.00006913,0.00001131,-0.291
 37685,0.14421620,0.15331870,0.31354729,0.00520575,-0.00076237,-0.00151
 849,-0.00142765,0.00031970,-0.00161327,0.00013679,-0.00038146,0.000717
 71,0.00007874,0.00058421,-0.00014696,-0.00056453,-0.00022601,-0.000189
 82,0.00008116,-0.00000024,0.00003997,0.00019595,0.00013505,-0.00016324
 ,0.19756425,-0.15704244,-0.09257151,-0.16969172,0.14712416,-0.00556062
 ,0.00303899,0.00312759,0.00144675,-0.00289940,0.00033420,0.00003272,0.
 00034508,0.00031736,-0.00013284,0.00066944,-0.00058295,0.00070437,0.00
 011629,-0.00019876,-0.00016584,0.00006454,0.00000251,-0.00022623,-0.00
 003498,0.00033388,0.14767391,-0.06017254,-0.10056337,-0.16709333,0.075
 99896,0.10393765,0.00463285,0.00186922,-0.00328212,0.00059184,0.000148
 09,-0.00099904,0.00011265,-0.00002126,-0.00006389,0.00027424,0.0000349
 8,-0.00005862,-0.00031864,0.00004340,0.00048057,0.00010889,0.00003346,
 -0.00004257,0.00019771,0.00018039,-0.00029804,-0.16740112,-0.11995866,
 0.13456067,-0.01931582,-0.03178036,0.02454300,0.18187783,-0.00254460,-
 0.00164761,0.00300923,-0.00006703,0.00027196,0.00023253,0.00000323,0.0
 0004395,0.00001880,-0.00011856,-0.00001487,0.00001292,-0.00016488,-0.0
 0007154,-0.00052477,-0.00008000,-0.00003416,0.00005427,0.00008840,0.00
 009168,0.00010172,-0.16884720,-0.23754469,0.17973319,0.02187003,0.0111
 7888,-0.01733214,0.15008555,0.22838226,0.00058108,0.00529884,-0.001758
 20,0.00003399,-0.00014355,-0.00056115,0.00006045,0.00007958,-0.0000264
 6,0.00016938,0.00026410,-0.00016860,0.00020060,-0.00032906,0.00027150,
 0.00007698,0.00010407,-0.00003267,-0.00027906,0.00010350,0.00002994,0.
 14118417,0.14046671,-0.14652132,0.01388655,0.01981202,-0.00680624,-0.1
 5658760,-0.16438950,0.15586643,-0.01959945,-0.00462670,-0.00636724,0.0
 0347916,0.00042763,0.00035261,-0.00042634,-0.00130628,-0.00302047,0.00
 000185,0.00007789,0.00011362,-0.00036208,-0.00108464,-0.00144460,-0.00
 019305,-0.00011775,0.00076367,0.00067329,0.00019292,0.00012808,0.00285
 782,-0.00035777,0.00043181,-0.00087694,-0.00104282,0.00016448,-0.00033
 520,0.00042022,-0.00013898,0.16583911,-0.01343502,-0.01862279,-0.00651
 410,0.00172890,-0.00131385,-0.00443482,-0.00000635,-0.00153496,0.00026
 099,0.00107758,-0.00000734,-0.00008851,0.00041828,-0.00061784,0.000693
 29,0.00007984,-0.00017306,0.00034518,0.00023907,-0.00009465,0.00029081
 ,0.00004780,-0.00456228,0.00127157,-0.00039773,-0.00025340,0.00051545,
 0.00085723,-0.00070863,-0.00032476,-0.16294803,0.55690494,-0.01320752,
 -0.00715286,-0.01567537,0.00170625,-0.00320421,-0.00238869,-0.00155238
 ,0.00120894,0.00045287,0.00055489,0.00008749,0.00031848,-0.00182253,-0
 .00131662,-0.00029226,0.00035728,0.00002611,0.00053255,0.00094809,0.00
 026857,-0.00072706,0.00068995,0.00031186,0.00189710,-0.00008461,0.0000
 8564,-0.00048898,-0.00008821,-0.00022236,-0.00028886,0.18813590,-0.048
 61859,0.44006230,0.00230979,-0.00350961,-0.00081811,0.00002475,-0.0004
 2779,-0.00041472,0.00010910,0.00046848,0.00015333,0.00021963,0.0000636
 0,-0.00000162,-0.00007146,0.00003492,0.00050750,0.00017941,-0.00008099
 ,-0.00016845,-0.00005696,-0.00014982,-0.00009911,-0.00010884,-0.000795
 21,0.00032862,0.00007095,-0.00006978,0.00001335,0.00024689,-0.00021043
 ,0.00001138,-0.05677225,0.11604991,-0.01783337,0.05520736,0.00034742,-
 0.00312245,-0.00195290,-0.00023457,0.00003527,-0.00002591,0.00010240,-
 0.00000207,-0.00016522,0.00009055,0.00000217,0.00001775,0.00036965,0.0
 0009205,0.00060349,0.00004725,0.00011601,-0.00015155,-0.00022304,-0.00
 005666,-0.00000081,-0.00021642,0.00005563,0.00015480,0.00001665,-0.000
 06411,-0.00002293,0.00007627,-0.00012565,-0.00004085,0.13041807,-0.447
 26855,-0.00482155,-0.13514893,0.46453409,0.00142354,-0.00101206,0.0026
 6362,0.00015721,-0.00024496,-0.00133517,0.00019726,-0.00073630,0.00026
 601,0.00029329,-0.00016654,-0.00007679,0.00011298,0.00017861,-0.000122
 54,-0.00016012,-0.00024164,-0.00009835,-0.00020519,-0.00012370,0.00014
 254,-0.00002932,-0.00038403,0.00011374,-0.00002917,0.00002322,0.000079
 59,0.00011390,0.00002625,0.00008821,0.00069448,-0.06325985,-0.04865353
 ,0.01503457,0.01834450,0.04711592,-0.00106691,-0.00163212,-0.00613537,
 -0.00093696,0.00012690,-0.00007874,0.00059342,-0.00005088,0.00080403,0
 .00005599,0.00000348,0.00003139,-0.00012169,-0.00008435,0.00031454,0.0
 0005895,-0.00001093,-0.00009851,0.00002256,-0.00002617,-0.00018301,-0.
 00150720,0.00072991,0.00042798,0.00067554,0.00078262,0.00008817,0.0001
 5428,-0.00030511,-0.00012570,-0.09203422,0.05965862,-0.15616529,-0.000
 30840,0.00422407,-0.01770598,0.09475674,-0.00425223,0.00496134,-0.0057
 7297,0.00097204,-0.00105507,-0.00007855,-0.00038354,0.00046310,-0.0003
 7824,0.00005358,0.00002417,0.00000852,-0.00045889,-0.00059440,-0.00019
 122,0.00007503,0.00004121,0.00019876,0.00020212,0.00011808,-0.00018887
 ,0.00208787,0.00124822,0.00183118,-0.00025382,-0.00069339,-0.00050759,
 -0.00029571,-0.00005502,-0.00000146,0.04175553,-0.08025239,0.06444344,
 0.02407547,-0.01445944,0.04761148,-0.06339925,0.09064079,-0.00206287,-
 0.00054164,-0.00119778,0.00038188,0.00000521,0.00027438,-0.00020770,-0
 .00005112,-0.00084126,0.00006736,-0.00011344,0.00002032,0.00022891,0.0
 0017331,0.00015937,-0.00005194,-0.00001100,-0.00008522,-0.00016663,-0.
 00010421,0.00004703,0.00040383,0.00038149,-0.00120863,-0.00011339,-0.0
 0041580,0.00020841,0.00001621,0.00042092,0.00045145,-0.18047614,0.1192
 2499,-0.37569938,0.00287436,-0.01194434,0.00002952,0.17843993,-0.10724
 723,0.37809681,0.00524765,0.00034672,0.00337068,-0.00138363,0.00021420
 ,0.00000243,0.00023189,0.00012289,0.00012065,0.00044261,-0.00024513,-0
 .00013797,-0.01908626,-0.00671121,0.00936134,-0.00333440,0.00049208,-0
 .00035824,0.00120398,0.00451195,-0.00353068,-0.00070528,0.00032415,-0.
 00054498,0.00020543,-0.00005880,0.00007521,0.00013947,-0.00021916,0.00
 027335,-0.00071248,-0.00040713,-0.00040143,0.00006913,0.00024317,0.000
 02190,0.00016193,-0.00003875,0.00012895,0.44715931,0.00107235,-0.00193
 123,0.00116034,-0.00040816,0.00026425,0.00001414,0.00008989,-0.0000294
 9,0.00002227,0.00007776,-0.00020191,-0.00002133,-0.00648072,0.00659718
 ,0.00175596,0.00123195,0.00010433,-0.00109201,0.00346101,-0.01635831,-
 0.00094924,0.00001113,0.00032892,-0.00003646,-0.00008346,-0.00008408,-
 0.00002296,-0.00016257,-0.00013984,-0.00011277,-0.00022337,0.00014162,
 -0.00012015,0.00016586,0.00001316,0.00007740,0.00005814,-0.00010615,0.
 00003932,-0.05637682,0.65171190,0.00211681,0.00101352,-0.00916318,0.00
 105460,-0.00019065,0.00034067,-0.00009896,-0.00010622,-0.00025877,-0.0
 0041298,0.00013927,-0.00006470,0.01445622,0.00370872,0.00354248,0.0004
 4175,-0.00079518,0.00041638,-0.01354233,-0.00433753,-0.00592875,-0.001
 04482,0.00040119,0.00054430,0.00005981,0.00014569,-0.00038103,0.000547
 79,-0.00032931,-0.00008850,-0.00066581,-0.00053372,0.00060612,0.000119
 12,0.00016679,-0.00027129,0.00034957,0.00015571,-0.00006504,0.06781280
 ,0.05368895,0.07078831,-0.00075308,0.00043046,-0.00032255,0.00020974,-
 0.00006590,-0.00001408,-0.00005293,-0.00000384,-0.00001361,-0.00006142
 ,0.00004934,0.00001942,0.00037063,-0.00176644,0.00089183,-0.00097434,0
 .00012029,0.00050785,-0.00235654,0.00420410,-0.00155868,0.00012254,-0.
 00008082,0.00009530,-0.00003460,0.00001305,-0.00001217,-0.00002032,0.0
 0003835,-0.00003797,0.00018635,0.00003536,0.00007474,-0.00007664,-0.00
 004665,-0.00002542,-0.00004725,0.00002555,-0.00003607,-0.29575072,0.24
 058493,-0.02717961,0.29085537,0.00043905,0.00063350,0.00008540,-0.0000
 7697,-0.00007027,-0.00000359,-0.00000582,0.00004056,0.00001220,0.00004
 418,0.00003557,-0.00000872,-0.00277091,-0.00174377,0.00091091,-0.00050
 521,0.00022625,0.00035183,0.00242871,0.00361664,-0.00141859,-0.0001103
 4,-0.00004507,-0.00004237,0.00004378,0.00002238,0.00000645,0.00007002,
 0.00000459,0.00004662,-0.00001037,-0.00015884,-0.00002021,-0.00008730,
 0.00005035,-0.00003669,-0.00000450,0.00004220,-0.00000352,0.18002623,-
 0.23499425,0.01172953,-0.22293878,0.26512448,-0.00024541,0.00001436,0.
 00120673,-0.00012118,0.00002155,-0.00008907,0.00002155,0.00001246,0.00
 005607,0.00006826,-0.00002085,0.00003336,0.00037493,0.00098970,-0.0016
 9746,0.00094611,0.00019745,-0.00001024,0.00199548,-0.00277300,0.002080
 82,0.00013139,-0.00004953,-0.00011662,-0.00000950,-0.00001749,0.000065
 68,-0.00007598,0.00004265,0.00005003,0.00013112,0.00005317,-0.00013395
 ,-0.00006107,-0.00003315,0.00007290,-0.00007320,-0.00001278,0.00002301
 ,-0.03453805,0.02415300,-0.02236851,0.03028870,-0.01583219,0.01280813,
 -0.00053550,-0.00081806,-0.00041268,0.00016967,0.00007328,0.00000177,-
 0.00003373,-0.00003806,-0.00002092,-0.00009022,-0.00004185,0.00002506,
 -0.00145222,0.00156193,0.00130771,-0.00002176,-0.00006400,-0.00002078,
 0.00034612,-0.00573635,-0.00228585,0.00018454,0.00008938,0.00017861,-0
 .00011160,-0.00001669,-0.00004747,-0.00010834,-0.00002148,-0.00016668,
 0.00009485,0.00011310,0.00006986,0.00000527,-0.00004127,0.00000356,-0.
 00001555,-0.00002199,-0.00002496,-0.12059850,-0.18257543,-0.03888855,0
 .00961344,0.04359559,0.00485059,0.11288392,-0.00081745,0.00051452,-0.0
 0030908,0.00020806,-0.00013493,-0.00001439,-0.00004561,0.00001453,-0.0
 0001197,-0.00004368,0.00010538,0.00000895,0.00275886,-0.00017710,-0.00
 041509,-0.00022870,0.00003545,0.00009313,-0.00371489,-0.00023212,0.000
 49230,0.00006920,-0.00021175,0.00003245,0.00003449,0.00004576,0.000023
 69,0.00005446,0.00011049,0.00004458,0.00014745,-0.00000398,0.00004644,
 -0.00005626,-0.00002230,-0.00001584,-0.00004416,0.00004279,-0.00001653
 ,-0.12214967,-0.39741241,-0.06475556,-0.02197356,-0.03410383,-0.009064
 49,0.14624097,0.43096231,-0.00035264,-0.00027524,0.00125862,-0.0001029
 3,0.00001020,-0.00010734,0.00001822,0.00001307,0.00004996,0.00008140,0
 .00001170,0.00004812,0.00098526,-0.00111964,-0.00185262,0.00007747,0.0
 0030865,0.00022470,0.00082072,0.00381969,0.00255668,0.00019336,-0.0000
 0083,-0.00012350,-0.00003778,-0.00002033,0.00008038,-0.00018444,0.0000
 1670,0.00002285,0.00011449,0.00009242,-0.00010808,-0.00002205,-0.00003
 359,0.00005489,-0.00006263,-0.00003424,0.00001907,-0.03275793,-0.07744
 146,-0.03408991,-0.00232494,0.00393701,0.00868834,0.03566100,0.0743631
 7,0.02399009,-0.03129241,-0.00907591,0.01117219,0.00105160,-0.00002456
 ,-0.00044574,0.00038492,-0.00025610,-0.00039764,0.00027922,-0.00014157
 ,-0.00013347,0.00665794,0.00046325,0.00590274,0.00058014,0.00071994,0.
 00019530,-0.00531148,-0.00156728,0.00347851,-0.00535061,0.00442689,-0.
 00070701,0.00013101,0.00054001,-0.00145858,-0.00017118,-0.00101717,0.0
 0041460,-0.00357285,-0.00371182,-0.00048862,-0.00045572,0.00072344,-0.
 00037026,0.00071614,0.00005798,0.00047034,-0.00527684,-0.00154970,-0.0
 1546555,0.00064430,-0.00181427,0.00028643,-0.00062947,0.00205184,0.000
 07329,0.40926378,-0.00025049,-0.00808099,-0.00085319,-0.00027587,0.000
 75082,-0.00003242,0.00020136,-0.00024992,-0.00016703,0.00009984,-0.000
 18982,0.00004212,0.00126456,0.00192088,0.00139159,0.00002551,0.0001643
 6,-0.00066387,-0.00120869,-0.00182335,0.00035097,0.00171384,0.00100160
 ,-0.00009459,-0.00014555,-0.00000163,0.00012790,-0.00195779,0.00015724
 ,-0.00059299,-0.00241757,-0.00089387,-0.00063725,0.00045199,0.00048042
 ,-0.00022501,0.00038813,-0.00071119,0.00028763,-0.00211409,0.00684980,
 -0.00322368,-0.00108670,-0.00114428,-0.00125073,0.00111625,-0.00070414
 ,0.00182912,-0.03999533,0.18747108,0.01324353,0.00450694,-0.01923032,0
 .00029429,0.00002671,0.00121282,-0.00028200,0.00003310,-0.00016076,-0.
 00072105,0.00014041,0.00001143,-0.00099298,0.00120655,-0.00860159,-0.0
 0129328,-0.00130436,-0.00035720,0.00102148,0.00051037,0.00138350,0.000
 32015,-0.00141445,0.00387100,-0.00018002,0.00003210,-0.00001664,0.0021
 2367,-0.00157049,-0.00114290,0.00056744,0.00018134,0.00149951,0.000224
 87,0.00005415,-0.00047623,0.00066173,0.00052006,-0.00050346,-0.0116772
 3,-0.00116696,-0.00623294,-0.00010170,-0.00133497,-0.00215030,-0.00046
 768,0.00140685,-0.00161955,0.09354849,0.23404771,0.51579384,-0.0096670
 5,-0.00078771,0.00308889,0.00038793,-0.00005857,-0.00027908,-0.0001138
 3,-0.00001884,0.00005469,-0.00003932,0.00007223,0.00011675,-0.00310201
 ,-0.00047251,-0.00225609,-0.00018499,-0.00021077,0.00006208,0.00624612
 ,0.00129365,0.00000650,0.00051258,-0.00030099,0.00028347,-0.00014935,0
 .00001779,-0.00000732,-0.00031993,0.00029805,-0.00013983,0.00098198,0.
 00047587,0.00001011,-0.00025690,-0.00030491,0.00012025,-0.00033626,-0.
 00002959,-0.00005099,-0.00558078,0.00025206,0.01177370,-0.00156772,0.0
 0181871,-0.00297160,0.00028315,-0.00236272,-0.00201949,-0.30050110,-0.
 01767249,-0.18152230,0.30380627,-0.00386545,0.00201562,0.00155569,0.00
 025141,-0.00018028,-0.00015000,-0.00004698,0.00003143,0.00001841,0.000
 00432,0.00009580,0.00001615,-0.00038813,-0.00135518,-0.00117081,-0.000
 20889,0.00001728,0.00041020,0.00105871,0.00263854,0.00064528,0.0004825
 1,-0.00051226,-0.00012718,0.00009555,0.00005246,0.00010268,0.00006302,
 0.00047595,0.00014053,0.00018558,-0.00010574,0.00002108,-0.00021224,-0
 .00007252,-0.00001299,-0.00009263,0.00006778,-0.00005821,0.00177663,-0
 .01445375,0.00236720,0.00220599,0.00216178,0.00354177,-0.00347031,0.00
 104613,-0.00517652,0.01569351,-0.03045864,-0.01008092,0.00961725,0.037
 72144,0.00358700,0.00064635,0.00923499,-0.00075255,0.00009520,-0.00021
 150,-0.00001763,0.00008301,0.00024655,0.00021889,-0.00000764,0.0000793
 5,-0.00518184,-0.00095127,-0.00085299,-0.00004991,0.00005614,-0.000317
 57,0.00524751,0.00192393,-0.00746529,0.00182463,-0.00108084,-0.0003141
 4,-0.00003496,-0.00021428,0.00046538,-0.00049014,0.00046944,0.00002834
 ,0.00140029,0.00120339,-0.00038603,-0.00006228,-0.00031023,0.00029253,
 -0.00046864,-0.00014218,-0.00003933,0.00344912,-0.00105449,0.00222367,
 0.00023218,0.00191661,0.00209716,0.00027656,-0.00175477,0.00087294,-0.
 13486509,-0.02923938,-0.15361037,0.16167614,0.02963277,0.16762064,0.00
 069237,0.00317076,0.00528332,0.00014014,-0.00020933,-0.00039938,-0.000
 01596,0.00004777,0.00012131,0.00014530,0.00002650,0.00001591,0.0001824
 2,-0.00047477,0.00141263,0.00029501,0.00017279,0.00016711,-0.00024189,
 -0.00008680,0.00006497,-0.00066197,0.00019094,-0.00150573,-0.00002668,
 0.00003625,-0.00003757,-0.00034609,0.00079177,0.00058326,0.00077043,0.
 00012451,-0.00090313,-0.00033511,-0.00044315,0.00035251,-0.00082113,-0
 .00017140,0.00017893,-0.00243251,0.00085515,-0.00143356,-0.00030681,-0
 .00014180,-0.00099855,0.00001593,-0.00012863,-0.00016039,-0.06714740,0
 .06186308,0.08523259,0.00960122,-0.02314986,-0.03598931,0.06049272,-0.
 00132991,0.00222590,0.00166243,0.00019717,-0.00023253,-0.00019598,-0.0
 0002556,0.00006373,0.00003153,0.00006415,0.00003072,-0.00001682,0.0002
 8335,-0.00025972,0.00143206,0.00012785,0.00012963,0.00023732,-0.000181
 68,0.00010698,-0.00003498,-0.00044152,-0.00001667,0.00034194,0.0000699
 6,0.00004652,-0.00001694,0.00066026,-0.00037500,-0.00042561,0.00051002
 ,-0.00047438,-0.00038577,-0.00056186,-0.00018541,0.00019814,-0.0003217
 7,0.00027737,-0.00002584,0.00026272,-0.00029975,0.00075528,0.00025526,
 0.00030201,0.00002810,0.00005500,0.00012519,-0.00029989,0.03447685,-0.
 15453838,-0.22579416,0.00837349,0.00081416,-0.00127176,-0.04247379,0.1
 5225962,0.00370046,-0.00188678,-0.00154510,-0.00034952,0.00008355,0.00
 005271,0.00008325,-0.00000406,0.00003395,0.00008334,-0.00005335,-0.000
 04428,-0.00002669,0.00053165,0.00045759,0.00006482,-0.00010206,-0.0002
 7841,-0.00000230,-0.00035636,-0.00040295,-0.00034962,0.00028629,-0.000
 90176,0.00003582,0.00001587,0.00008533,-0.00021517,0.00022996,0.000586
 15,-0.00088476,-0.00035827,-0.00052674,0.00021368,0.00016156,0.0001144
 1,-0.00002029,-0.00021380,0.00031074,-0.00066990,0.00110647,0.00045069
 ,-0.00048324,-0.00029571,-0.00061609,-0.00003915,-0.00015382,0.0000343
 7,0.03879007,-0.20109694,-0.32966981,0.01205411,-0.02167512,-0.0199643
 1,-0.05198492,0.22378094,0.35182353\\0.01063577,-0.00684029,0.00329218
 ,-0.00940149,0.00824601,-0.00410452,0.00796521,0.00461023,0.00875760,-
 0.00199567,-0.01134813,-0.00452388,-0.00565632,0.01314461,0.01169341,0
 .00691722,0.00001518,-0.01059207,-0.00019985,-0.01013664,0.00035131,-0
 .00702230,-0.00375607,-0.01059771,0.01146240,0.00374149,-0.00305777,-0
 .00700356,0.00108079,0.01041365,-0.01322146,-0.00306029,0.00454691,0.0
 0010708,0.00991715,-0.00767342,0.00904454,-0.00865310,0.00300019,-0.00
 445013,0.00045557,-0.00135195,-0.00243502,0.01124907,0.00121774,0.0038
 4476,-0.01140852,-0.00013770,-0.00149383,0.01396257,-0.00965317,-0.001
 10217,-0.00941679,-0.00401659,0.00400482,-0.00180285,0.01243579\\\@


 THERE ARE PEOPLE SO ADDICTED TO EXAGERATING THEY
 CAN'T TELL THE TRUTH WITHOUT LYING. -- FORTUNE COOKIE
 Job cpu time:       0 days  0 hours 51 minutes 29.6 seconds.
 Elapsed time:       0 days  0 hours  1 minutes 51.5 seconds.
 File lengths (MBytes):  RWF=   2793 Int=      0 D2E=      0 Chk=      3 Scr=      1
 Normal termination of Gaussian 16 at Wed May 11 22:09:38 2022.
