 Entering Gaussian System, Link 0=g16
 Initial command:
 /cm/shared/apps/gaussian/intel/EM64T/SSE4_2-enabled/binary//g16/l1.exe "/scratch/florez/25750/Gau-24896.inp" -scrdir="/scratch/florez/25750/"
 Entering Link 1 = /cm/shared/apps/gaussian/intel/EM64T/SSE4_2-enabled/binary//g16/l1.exe PID=     24899.
  
 Copyright (c) 1988,1990,1992,1993,1995,1998,2003,2009,2016,
            Gaussian, Inc.  All Rights Reserved.
  
 This is part of the Gaussian(R) 16 program.  It is based on
 the Gaussian(R) 09 system (copyright 2009, Gaussian, Inc.),
 the Gaussian(R) 03 system (copyright 2003, Gaussian, Inc.),
 the Gaussian(R) 98 system (copyright 1998, Gaussian, Inc.),
 the Gaussian(R) 94 system (copyright 1995, Gaussian, Inc.),
 the Gaussian 92(TM) system (copyright 1992, Gaussian, Inc.),
 the Gaussian 90(TM) system (copyright 1990, Gaussian, Inc.),
 the Gaussian 88(TM) system (copyright 1988, Gaussian, Inc.),
 the Gaussian 86(TM) system (copyright 1986, Carnegie Mellon
 University), and the Gaussian 82(TM) system (copyright 1983,
 Carnegie Mellon University). Gaussian is a federally registered
 trademark of Gaussian, Inc.
  
 This software contains proprietary and confidential information,
 including trade secrets, belonging to Gaussian, Inc.
  
 This software is provided under written license and may be
 used, copied, transmitted, or stored only in accord with that
 written license.
  
 The following legend is applicable only to US Government
 contracts under FAR:
  
                    RESTRICTED RIGHTS LEGEND
  
 Use, reproduction and disclosure by the US Government is
 subject to restrictions as set forth in subparagraphs (a)
 and (c) of the Commercial Computer Software - Restricted
 Rights clause in FAR 52.227-19.
  
 Gaussian, Inc.
 340 Quinnipiac St., Bldg. 40, Wallingford CT 06492
  
  
 ---------------------------------------------------------------
 Warning -- This program may not be used in any manner that
 competes with the business of Gaussian, Inc. or will provide
 assistance to any competitor of Gaussian, Inc.  The licensee
 of this program is prohibited from giving any competitor of
 Gaussian, Inc. access to this program.  By using this program,
 the user acknowledges that Gaussian, Inc. is engaged in the
 business of creating and licensing software in the field of
 computational chemistry and represents and warrants to the
 licensee that it is not a competitor of Gaussian, Inc. and that
 it will not use this program in any manner prohibited above.
 ---------------------------------------------------------------
  

 Cite this work as:
 Gaussian 16, Revision A.03,
 M. J. Frisch, G. W. Trucks, H. B. Schlegel, G. E. Scuseria, 
 M. A. Robb, J. R. Cheeseman, G. Scalmani, V. Barone, 
 G. A. Petersson, H. Nakatsuji, X. Li, M. Caricato, A. V. Marenich, 
 J. Bloino, B. G. Janesko, R. Gomperts, B. Mennucci, H. P. Hratchian, 
 J. V. Ortiz, A. F. Izmaylov, J. L. Sonnenberg, D. Williams-Young, 
 F. Ding, F. Lipparini, F. Egidi, J. Goings, B. Peng, A. Petrone, 
 T. Henderson, D. Ranasinghe, V. G. Zakrzewski, J. Gao, N. Rega, 
 G. Zheng, W. Liang, M. Hada, M. Ehara, K. Toyota, R. Fukuda, 
 J. Hasegawa, M. Ishida, T. Nakajima, Y. Honda, O. Kitao, H. Nakai, 
 T. Vreven, K. Throssell, J. A. Montgomery, Jr., J. E. Peralta, 
 F. Ogliaro, M. J. Bearpark, J. J. Heyd, E. N. Brothers, K. N. Kudin, 
 V. N. Staroverov, T. A. Keith, R. Kobayashi, J. Normand, 
 K. Raghavachari, A. P. Rendell, J. C. Burant, S. S. Iyengar, 
 J. Tomasi, M. Cossi, J. M. Millam, M. Klene, C. Adamo, R. Cammi, 
 J. W. Ochterski, R. L. Martin, K. Morokuma, O. Farkas, 
 J. B. Foresman, and D. J. Fox, Gaussian, Inc., Wallingford CT, 2016.
 
 ******************************************
 Gaussian 16:  ES64L-G16RevA.03 25-Dec-2016
                11-May-2022 
 ******************************************
 %chk=w6s10.chk
 %nproc=28
 Will use up to   28 processors via shared memory.
 %mem=500gb
 ------------------------
 #p MP2(full) SDDAll freq
 ------------------------
 1/10=4,30=1,38=1/1,3;
 2/12=2,17=6,18=5,40=1/2;
 3/5=17,6=6,11=9,25=1,30=1,71=2,140=1/1,2,3;
 4//1;
 5/5=2,38=5,98=1/2;
 8/6=3,8=1,10=90,19=11/1;
 9/15=3,16=-3/6;
 11/6=1,8=1,15=11,17=11,24=-1,27=1,28=-2,29=300,32=6,42=3/1,2,10;
 10/6=2,21=1/2;
 8/6=4,8=1,10=90,19=11/11,4;
 10/5=1,20=4/2;
 11/12=2,14=11,16=1,28=-2,42=3/2,10,12;
 6/7=2,8=2,9=2,10=2/1;
 7/8=1,10=1,12=2,25=1,44=2/1,2,3,16;
 1/10=4,30=1/3;
 99//99;
 Leave Link    1 at Wed May 11 21:54:54 2022, MaxMem= 67108864000 cpu:               1.1 elap:               0.0
 (Enter /cm/shared/apps/gaussian/intel/EM64T/SSE4_2-enabled/binary//g16/l101.exe)
 ----------------------------------------------------------------------
 file 'w6s10.log' Now we use Def2-QZVPPD, but it was opt at: ---'ZORA-S
 R+SO PBE QZ4P'---
 ----------------------------------------------------------------------
 Symbolic Z-matrix:
 Charge =  2 Multiplicity = 1
 Hg(Fragment=1)        0.35109  -0.10285  -0.94668 
 O(Fragment=2)         0.95954  -0.26997   1.4565 
 H(Fragment=2)         0.40236  -0.87022   1.99124 
 H(Fragment=2)         1.84103  -0.25933   1.86778 
 O(Fragment=2)        -1.35737  -1.9705    1.90953 
 H(Fragment=2)        -1.28458  -2.91767   2.12979 
 H(Fragment=2)        -2.07245  -1.63114   2.4784 
 O(Fragment=2)        -3.16093  -1.25446  -2.15287 
 H(Fragment=2)        -3.37949  -2.04781  -2.67312 
 H(Fragment=2)        -4.00797  -0.84461  -1.90517 
 O(Fragment=2)         1.89092   1.12387  -1.53465 
 H(Fragment=2)         2.18874   1.25715  -2.60035 
 H(Fragment=2)         1.92583   1.97085  -1.05259 
 O(Fragment=2)        -1.18083  -1.41698  -0.64553 
 H(Fragment=2)        -2.06205  -1.33165  -1.23412 
 H(Fragment=2)        -1.35769  -1.62481   0.3371 
 O(Fragment=2)         2.57599   1.30416  -3.8764 
 H(Fragment=2)         3.50467   1.07069  -4.06086 
 H(Fragment=2)         2.37281   2.09997  -4.40104 
 
 ITRead=  0  0  0  0  0  0  0  0  0  0  0  0  0  0  0  0  0  0  0
 MicOpt= -1 -1 -1 -1 -1 -1 -1 -1 -1 -1 -1 -1 -1 -1 -1 -1 -1 -1 -1
 NAtoms=     19 NQM=       19 NQMF=       0 NMMI=      0 NMMIF=      0
                NMic=       0 NMicF=      0.
                    Isotopes and Nuclear Properties:
 (Nuclear quadrupole moments (NQMom) in fm**2, nuclear magnetic moments (NMagM)
  in nuclear magnetons)

  Atom         1           2           3           4           5           6           7           8           9          10
 IAtWgt=         202          16           1           1          16           1           1          16           1           1
 AtmWgt= 201.9706000  15.9949146   1.0078250   1.0078250  15.9949146   1.0078250   1.0078250  15.9949146   1.0078250   1.0078250
 NucSpn=           0           0           1           1           0           1           1           0           1           1
 AtZEff=  -0.0000000  -0.0000000  -0.0000000  -0.0000000  -0.0000000  -0.0000000  -0.0000000  -0.0000000  -0.0000000  -0.0000000
 NQMom=    0.0000000   0.0000000   0.0000000   0.0000000   0.0000000   0.0000000   0.0000000   0.0000000   0.0000000   0.0000000
 NMagM=    0.0000000   0.0000000   2.7928460   2.7928460   0.0000000   2.7928460   2.7928460   0.0000000   2.7928460   2.7928460
 AtZNuc=  80.0000000   8.0000000   1.0000000   1.0000000   8.0000000   1.0000000   1.0000000   8.0000000   1.0000000   1.0000000

  Atom        11          12          13          14          15          16          17          18          19
 IAtWgt=          16           1           1          16           1           1          16           1           1
 AtmWgt=  15.9949146   1.0078250   1.0078250  15.9949146   1.0078250   1.0078250  15.9949146   1.0078250   1.0078250
 NucSpn=           0           1           1           0           1           1           0           1           1
 AtZEff=  -0.0000000  -0.0000000  -0.0000000  -0.0000000  -0.0000000  -0.0000000  -0.0000000  -0.0000000  -0.0000000
 NQMom=    0.0000000   0.0000000   0.0000000   0.0000000   0.0000000   0.0000000   0.0000000   0.0000000   0.0000000
 NMagM=    0.0000000   2.7928460   2.7928460   0.0000000   2.7928460   2.7928460   0.0000000   2.7928460   2.7928460
 AtZNuc=   8.0000000   1.0000000   1.0000000   8.0000000   1.0000000   1.0000000   8.0000000   1.0000000   1.0000000
 Leave Link  101 at Wed May 11 21:54:54 2022, MaxMem= 67108864000 cpu:               2.2 elap:               0.1
 (Enter /cm/shared/apps/gaussian/intel/EM64T/SSE4_2-enabled/binary//g16/l103.exe)

 GradGradGradGradGradGradGradGradGradGradGradGradGradGradGradGradGradGrad
 Berny optimization.
 Initialization pass.
 Trust Radius=3.00D-01 FncErr=1.00D-07 GrdErr=1.00D-07 EigMax=2.50D+02 EigMin=1.00D-04
 Number of steps in this run=      2 maximum allowed number of steps=      2.
 GradGradGradGradGradGradGradGradGradGradGradGradGradGradGradGradGradGrad

 Leave Link  103 at Wed May 11 21:54:54 2022, MaxMem= 67108864000 cpu:               1.0 elap:               0.1
 (Enter /cm/shared/apps/gaussian/intel/EM64T/SSE4_2-enabled/binary//g16/l202.exe)
                          Input orientation:                          
 ---------------------------------------------------------------------
 Center     Atomic      Atomic             Coordinates (Angstroms)
 Number     Number       Type             X           Y           Z
 ---------------------------------------------------------------------
      1         80           0        0.351086   -0.102846   -0.946682
      2          8           0        0.959538   -0.269970    1.456499
      3          1           0        0.402355   -0.870216    1.991243
      4          1           0        1.841027   -0.259328    1.867784
      5          8           0       -1.357365   -1.970497    1.909528
      6          1           0       -1.284580   -2.917672    2.129790
      7          1           0       -2.072452   -1.631139    2.478400
      8          8           0       -3.160925   -1.254455   -2.152871
      9          1           0       -3.379488   -2.047814   -2.673117
     10          1           0       -4.007970   -0.844612   -1.905170
     11          8           0        1.890915    1.123871   -1.534645
     12          1           0        2.188738    1.257153   -2.600346
     13          1           0        1.925825    1.970853   -1.052587
     14          8           0       -1.180831   -1.416977   -0.645530
     15          1           0       -2.062047   -1.331652   -1.234122
     16          1           0       -1.357687   -1.624806    0.337102
     17          8           0        2.575992    1.304157   -3.876396
     18          1           0        3.504673    1.070694   -4.060861
     19          1           0        2.372809    2.099971   -4.401043
 ---------------------------------------------------------------------
                    Distance matrix (angstroms):
                    1          2          3          4          5
     1  Hg   0.000000
     2  O    2.484637   0.000000
     3  H    3.036921   0.978110   0.000000
     4  H    3.188358   0.972775   1.567866   0.000000
     5  O    3.816394   2.909479   2.076995   3.627610   0.000000
     6  H    4.479211   3.535493   2.656505   4.111552   0.975168
     7  H    4.465468   3.477071   2.634577   4.191663   0.974745
     8  O    3.887842   5.565517   5.478894   6.494264   4.502070
     9  H    4.547599   6.248328   6.119259   7.146485   5.009550
    10  H    4.524410   6.025543   5.885037   6.984877   4.779670
    11  O    2.054655   3.428877   4.315563   3.673180   5.655861
    12  H    2.821554   4.505666   5.366521   4.731258   6.582669
    13  H    2.606002   3.500073   4.433682   3.675522   5.923487
    14  O    2.040687   3.211749   3.123779   4.097380   2.620281
    15  H    2.723196   4.182892   4.085239   5.099577   3.284393
    16  H    2.623808   2.908292   2.530481   3.799906   1.609977
    17  O    3.938666   5.790559   6.624333   5.998355   7.724738
    18  H    4.584803   6.222247   7.072445   6.299643   8.278514
    19  H    4.568630   6.474933   7.318881   6.719172   8.384880
                    6          7          8          9         10
     6  H    0.000000
     7  H    1.548366   0.000000
     8  O    4.962675   4.772351   0.000000
     9  H    5.311611   5.331049   0.973573   0.000000
    10  H    5.291062   4.855980   0.973043   1.559624   0.000000
    11  O    6.312363   6.277172   5.617804   6.255626   6.229692
    12  H    7.201895   7.231434   5.926829   6.475588   6.580264
    13  H    6.658221   6.436492   6.122766   6.849974   6.622965
    14  O    3.156778   3.255732   2.493845   3.056658   3.147540
    15  H    3.799450   3.724597   1.434431   2.078279   2.115214
    16  H    2.211465   2.257451   3.096578   3.650758   3.558158
    17  O    8.294705   8.402823   6.513774   6.939116   7.200798
    18  H    8.784541   9.009226   7.312793   7.683918   8.047062
    19  H    9.011383   9.000459   6.850450   7.299231   7.457499
                   11         12         13         14         15
    11  O    0.000000
    12  H    1.114532   0.000000
    13  H    0.975181   1.724543   0.000000
    14  O    4.084367   4.725068   4.614585   0.000000
    15  H    4.663241   5.161168   5.180986   1.063138   0.000000
    16  H    4.648879   5.432441   5.063739   1.019822   1.746656
    17  O    2.446555   1.334346   2.973398   5.653033   5.953193
    18  H    2.998134   1.974729   3.514649   6.309274   6.689551
    19  H    3.066143   1.996681   3.380625   6.253092   6.439982
                   16         17         18         19
    16  H    0.000000
    17  O    6.465773   0.000000
    18  H    7.088748   0.975182   0.000000
    19  H    7.088059   0.974606   1.567243   0.000000
 Stoichiometry    H12HgO6(2+)
 Framework group  C1[X(H12HgO6)]
 Deg. of freedom    51
 Full point group                 C1      NOp   1
 Largest Abelian subgroup         C1      NOp   1
 Largest concise Abelian subgroup C1      NOp   1
                         Standard orientation:                         
 ---------------------------------------------------------------------
 Center     Atomic      Atomic             Coordinates (Angstroms)
 Number     Number       Type             X           Y           Z
 ---------------------------------------------------------------------
      1         80           0       -0.221213   -0.070041   -0.025550
      2          8           0        0.809769   -2.326064   -0.169976
      3          1           0        1.773775   -2.359713   -0.007929
      4          1           0        0.445586   -3.185159    0.105009
      5          8           0        3.435820   -1.134355    0.215711
      6          1           0        3.965209   -1.268574    1.023601
      7          1           0        4.075101   -1.183187   -0.518499
      8          8           0        2.005639    3.108841   -0.251732
      9          1           0        2.238060    3.723420    0.466681
     10          1           0        2.518069    3.387820   -1.030448
     11          8           0       -2.175015   -0.643425   -0.300319
     12          1           0       -3.041601    0.008914   -0.044071
     13          1           0       -2.331436   -1.121603   -1.135696
     14          8           0        1.606907    0.733497    0.394812
     15          1           0        1.824648    1.724329    0.076844
     16          1           0        2.381006    0.080516    0.274712
     17          8           0       -4.045885    0.781510    0.374246
     18          1           0       -4.661824    0.387462    1.019478
     19          1           0       -4.587422    1.249023   -0.287590
 ---------------------------------------------------------------------
 Rotational constants (GHZ):           1.4369321           0.6481380           0.4577193
 Leave Link  202 at Wed May 11 21:54:54 2022, MaxMem= 67108864000 cpu:               1.3 elap:               0.1
 (Enter /cm/shared/apps/gaussian/intel/EM64T/SSE4_2-enabled/binary//g16/l301.exe)
 Standard basis: SDDAll (6D, 10F)
 Ernie: Thresh=  0.10000D-02 Tol=  0.10000D-05 Strict=F.
 There are   129 symmetry adapted cartesian basis functions of A   symmetry.
 There are   129 symmetry adapted basis functions of A   symmetry.
   129 basis functions,   227 primitive gaussians,   129 cartesian basis functions
    33 alpha electrons       33 beta electrons
       nuclear repulsion energy       338.0458513173 Hartrees.
 IExCor=    0 DFT=F Ex=HF Corr=None ExCW=0 ScaHFX=  1.000000
 ScaDFX=  1.000000  1.000000  1.000000  1.000000 ScalE2=  1.000000  1.000000
 IRadAn=      5 IRanWt=     -1 IRanGd=            0 ICorTp=0 IEmpDi=  4
 NAtoms=   19 NActive=   19 NUniq=   19 SFac= 1.00D+00 NAtFMM=   60 NAOKFM=F Big=F
 Integral buffers will be    131072 words long.
 Raffenetti 1 integral format.
 Two-electron integral symmetry is turned on.
 Leave Link  301 at Wed May 11 21:54:55 2022, MaxMem= 67108864000 cpu:               1.2 elap:               0.1
 (Enter /cm/shared/apps/gaussian/intel/EM64T/SSE4_2-enabled/binary//g16/l302.exe)
 NPDir=0 NMtPBC=     1 NCelOv=     1 NCel=       1 NClECP=     1 NCelD=      1
         NCelK=      1 NCelE2=     1 NClLst=     1 CellRange=     0.0.
 One-electron integrals computed using PRISM.
 One-electron integral symmetry used in STVInt
   1 Symmetry operations used in ECPInt.
 ECPInt:  NShTT=    2346 NPrTT=    7709 LenC2=    2300 LenP2D=    5871.
 LDataN:  DoStor=T MaxTD1= 7 Len=  274
 NBasis=   129 RedAO= T EigKep=  3.81D-04  NBF=   129
 NBsUse=   129 1.00D-06 EigRej= -1.00D+00 NBFU=   129
 Leave Link  302 at Wed May 11 21:54:55 2022, MaxMem= 67108864000 cpu:              11.3 elap:               0.4
 (Enter /cm/shared/apps/gaussian/intel/EM64T/SSE4_2-enabled/binary//g16/l303.exe)
 DipDrv:  MaxL=1.
 Leave Link  303 at Wed May 11 21:54:55 2022, MaxMem= 67108864000 cpu:               0.8 elap:               0.1
 (Enter /cm/shared/apps/gaussian/intel/EM64T/SSE4_2-enabled/binary//g16/l401.exe)
 ExpMin= 2.00D-02 ExpMax= 4.71D+01 ExpMxC= 4.71D+01 IAcc=3 IRadAn=         5 AccDes= 0.00D+00
 Harris functional with IExCor=  205 and IRadAn=       5 diagonalized for initial guess.
 HarFok:  IExCor=  205 AccDes= 0.00D+00 IRadAn=         5 IDoV= 1 UseB2=F ITyADJ=14
 ICtDFT=  3500011 ScaDFX=  1.000000  1.000000  1.000000  1.000000
 Defaulting to unpruned grid for atomic number  80.
 FoFCou: FMM=F IPFlag=           0 FMFlag=      100000 FMFlg1=           0
         NFxFlg=           0 DoJE=T BraDBF=F KetDBF=T FulRan=T
         wScrn=  0.000000 ICntrl=       500 IOpCl=  0 I1Cent=   200000004 NGrid=           0
         NMat0=    1 NMatS0=      1 NMatT0=    0 NMatD0=    1 NMtDS0=    0 NMtDT0=    0
 Petite list used in FoFCou.
 Harris En= -257.162515202534    
 JPrj=0 DoOrth=F DoCkMO=F.
 Leave Link  401 at Wed May 11 21:54:55 2022, MaxMem= 67108864000 cpu:               8.3 elap:               0.3
 (Enter /cm/shared/apps/gaussian/intel/EM64T/SSE4_2-enabled/binary//g16/l502.exe)
 Integral symmetry usage will be decided dynamically.
 Closed shell SCF:
 Using DIIS extrapolation, IDIIS=  1040.
 NGot= 67108864000 LenX= 67108825412 LenY= 67108808330
 Requested convergence on RMS density matrix=1.00D-08 within 128 cycles.
 Requested convergence on MAX density matrix=1.00D-06.
 Requested convergence on             energy=1.00D-06.
 No special actions if energy rises.
 Fock matrices will be formed incrementally for  20 cycles.

 Cycle   1  Pass 0  IDiag  1:
 FoFJK:  IHMeth= 1 ICntrl=       0 DoSepK=F KAlg= 0 I1Cent=           0 FoldK=F
 IRaf= 940000000 NMat=       1 IRICut=       1 DoRegI=T DoRafI=F ISym2E= 0 IDoP0=0 IntGTp=1.
 FoFCou: FMM=F IPFlag=           0 FMFlag=      100000 FMFlg1=           0
         NFxFlg=           0 DoJE=F BraDBF=F KetDBF=F FulRan=T
         wScrn=  0.000000 ICntrl=         0 IOpCl=  0 I1Cent=           0 NGrid=           0
         NMat0=    1 NMatS0=      1 NMatT0=    0 NMatD0=    1 NMtDS0=    0 NMtDT0=    0
 Symmetry not used in FoFCou.
 E= -252.953196795211    
 DIIS: error= 3.86D-02 at cycle   1 NSaved=   1.
 NSaved= 1 IEnMin= 1 EnMin= -252.953196795211     IErMin= 1 ErrMin= 3.86D-02
 ErrMax= 3.86D-02  0.00D+00 EMaxC= 1.00D-01 BMatC= 6.22D-01 BMatP= 6.22D-01
 IDIUse=3 WtCom= 6.14D-01 WtEn= 3.86D-01
 Coeff-Com:  0.100D+01
 Coeff-En:   0.100D+01
 Coeff:      0.100D+01
 Gap=     0.667 Goal=   None    Shift=    0.000
 GapD=    0.667 DampG=2.000 DampE=0.250 DampFc=0.5000 IDamp=-1.
 Damping current iteration by 5.00D-01
 RMSDP=7.80D-03 MaxDP=2.31D-01              OVMax= 2.22D-01

 Cycle   2  Pass 0  IDiag  1:
 RMSU=  3.89D-03    CP:  1.01D+00
 E= -253.219046541770     Delta-E=       -0.265849746559 Rises=F Damp=T
 DIIS: error= 9.75D-03 at cycle   2 NSaved=   2.
 NSaved= 2 IEnMin= 2 EnMin= -253.219046541770     IErMin= 2 ErrMin= 9.75D-03
 ErrMax= 9.75D-03  0.00D+00 EMaxC= 1.00D-01 BMatC= 3.99D-02 BMatP= 6.22D-01
 IDIUse=3 WtCom= 9.03D-01 WtEn= 9.75D-02
 Coeff-Com: -0.245D+00 0.124D+01
 Coeff-En:   0.000D+00 0.100D+01
 Coeff:     -0.221D+00 0.122D+01
 Gap=     0.549 Goal=   None    Shift=    0.000
 RMSDP=2.52D-03 MaxDP=7.54D-02 DE=-2.66D-01 OVMax= 5.99D-02

 Cycle   3  Pass 0  IDiag  1:
 RMSU=  2.12D-03    CP:  1.00D+00  1.34D+00
 E= -253.445075788620     Delta-E=       -0.226029246850 Rises=F Damp=F
 DIIS: error= 3.55D-03 at cycle   3 NSaved=   3.
 NSaved= 3 IEnMin= 3 EnMin= -253.445075788620     IErMin= 3 ErrMin= 3.55D-03
 ErrMax= 3.55D-03  0.00D+00 EMaxC= 1.00D-01 BMatC= 2.82D-03 BMatP= 3.99D-02
 IDIUse=3 WtCom= 9.65D-01 WtEn= 3.55D-02
 Coeff-Com:  0.654D-01-0.240D+00 0.117D+01
 Coeff-En:   0.000D+00 0.000D+00 0.100D+01
 Coeff:      0.631D-01-0.232D+00 0.117D+01
 Gap=     0.540 Goal=   None    Shift=    0.000
 RMSDP=1.02D-03 MaxDP=3.38D-02 DE=-2.26D-01 OVMax= 2.39D-02

 Cycle   4  Pass 0  IDiag  1:
 RMSU=  5.11D-04    CP:  9.93D-01  1.29D+00  1.38D+00
 E= -253.449011727088     Delta-E=       -0.003935938468 Rises=F Damp=F
 DIIS: error= 1.65D-03 at cycle   4 NSaved=   4.
 NSaved= 4 IEnMin= 4 EnMin= -253.449011727088     IErMin= 4 ErrMin= 1.65D-03
 ErrMax= 1.65D-03  0.00D+00 EMaxC= 1.00D-01 BMatC= 4.73D-04 BMatP= 2.82D-03
 IDIUse=3 WtCom= 9.83D-01 WtEn= 1.65D-02
 Coeff-Com:  0.311D-01-0.134D+00 0.344D+00 0.759D+00
 Coeff-En:   0.000D+00 0.000D+00 0.000D+00 0.100D+01
 Coeff:      0.305D-01-0.132D+00 0.338D+00 0.763D+00
 Gap=     0.542 Goal=   None    Shift=    0.000
 RMSDP=2.82D-04 MaxDP=7.08D-03 DE=-3.94D-03 OVMax= 1.04D-02

 Cycle   5  Pass 0  IDiag  1:
 RMSU=  1.86D-04    CP:  9.92D-01  1.31D+00  1.47D+00  1.12D+00
 E= -253.449739607043     Delta-E=       -0.000727879955 Rises=F Damp=F
 DIIS: error= 5.40D-04 at cycle   5 NSaved=   5.
 NSaved= 5 IEnMin= 5 EnMin= -253.449739607043     IErMin= 5 ErrMin= 5.40D-04
 ErrMax= 5.40D-04  0.00D+00 EMaxC= 1.00D-01 BMatC= 4.74D-05 BMatP= 4.73D-04
 IDIUse=3 WtCom= 9.95D-01 WtEn= 5.40D-03
 Coeff-Com: -0.213D-01 0.767D-01-0.237D+00-0.258D+00 0.144D+01
 Coeff-En:   0.000D+00 0.000D+00 0.000D+00 0.000D+00 0.100D+01
 Coeff:     -0.212D-01 0.762D-01-0.235D+00-0.256D+00 0.144D+01
 Gap=     0.541 Goal=   None    Shift=    0.000
 RMSDP=2.27D-04 MaxDP=5.19D-03 DE=-7.28D-04 OVMax= 8.15D-03

 Cycle   6  Pass 0  IDiag  1:
 RMSU=  6.34D-05    CP:  9.91D-01  1.31D+00  1.54D+00  1.35D+00  1.57D+00
 E= -253.449924222920     Delta-E=       -0.000184615877 Rises=F Damp=F
 DIIS: error= 1.53D-04 at cycle   6 NSaved=   6.
 NSaved= 6 IEnMin= 6 EnMin= -253.449924222920     IErMin= 6 ErrMin= 1.53D-04
 ErrMax= 1.53D-04  0.00D+00 EMaxC= 1.00D-01 BMatC= 7.29D-06 BMatP= 4.74D-05
 IDIUse=3 WtCom= 9.98D-01 WtEn= 1.53D-03
 Coeff-Com: -0.620D-02 0.259D-01-0.941D-01-0.106D+00 0.346D+00 0.835D+00
 Coeff-En:   0.000D+00 0.000D+00 0.000D+00 0.000D+00 0.000D+00 0.100D+01
 Coeff:     -0.619D-02 0.259D-01-0.939D-01-0.106D+00 0.345D+00 0.835D+00
 Gap=     0.541 Goal=   None    Shift=    0.000
 RMSDP=5.54D-05 MaxDP=1.33D-03 DE=-1.85D-04 OVMax= 1.94D-03

 Cycle   7  Pass 0  IDiag  1:
 RMSU=  1.60D-05    CP:  9.90D-01  1.31D+00  1.56D+00  1.39D+00  1.69D+00
                    CP:  1.25D+00
 E= -253.449937099249     Delta-E=       -0.000012876329 Rises=F Damp=F
 DIIS: error= 4.73D-05 at cycle   7 NSaved=   7.
 NSaved= 7 IEnMin= 7 EnMin= -253.449937099249     IErMin= 7 ErrMin= 4.73D-05
 ErrMax= 4.73D-05  0.00D+00 EMaxC= 1.00D-01 BMatC= 7.60D-07 BMatP= 7.29D-06
 IDIUse=1 WtCom= 1.00D+00 WtEn= 0.00D+00
 Coeff-Com:  0.309D-02-0.860D-02 0.247D-01 0.345D-01-0.212D+00 0.625D-01
 Coeff-Com:  0.110D+01
 Coeff:      0.309D-02-0.860D-02 0.247D-01 0.345D-01-0.212D+00 0.625D-01
 Coeff:      0.110D+01
 Gap=     0.541 Goal=   None    Shift=    0.000
 RMSDP=2.25D-05 MaxDP=5.15D-04 DE=-1.29D-05 OVMax= 7.80D-04

 Cycle   8  Pass 0  IDiag  1:
 RMSU=  5.59D-06    CP:  9.90D-01  1.31D+00  1.56D+00  1.41D+00  1.75D+00
                    CP:  1.42D+00  1.27D+00
 E= -253.449938722619     Delta-E=       -0.000001623370 Rises=F Damp=F
 DIIS: error= 6.68D-06 at cycle   8 NSaved=   8.
 NSaved= 8 IEnMin= 8 EnMin= -253.449938722619     IErMin= 8 ErrMin= 6.68D-06
 ErrMax= 6.68D-06  0.00D+00 EMaxC= 1.00D-01 BMatC= 2.27D-08 BMatP= 7.60D-07
 IDIUse=1 WtCom= 1.00D+00 WtEn= 0.00D+00
 Coeff-Com: -0.517D-03 0.100D-02-0.777D-03-0.545D-02 0.365D-01-0.332D-01
 Coeff-Com: -0.264D+00 0.127D+01
 Coeff:     -0.517D-03 0.100D-02-0.777D-03-0.545D-02 0.365D-01-0.332D-01
 Coeff:     -0.264D+00 0.127D+01
 Gap=     0.541 Goal=   None    Shift=    0.000
 RMSDP=2.98D-06 MaxDP=8.08D-05 DE=-1.62D-06 OVMax= 8.24D-05

 Initial convergence to 1.0D-05 achieved.  Increase integral accuracy.
 Cycle   9  Pass 1  IDiag  1:
 E= -253.449938773079     Delta-E=       -0.000000050460 Rises=F Damp=F
 DIIS: error= 2.76D-06 at cycle   1 NSaved=   1.
 NSaved= 1 IEnMin= 1 EnMin= -253.449938773079     IErMin= 1 ErrMin= 2.76D-06
 ErrMax= 2.76D-06  0.00D+00 EMaxC= 1.00D-01 BMatC= 2.25D-09 BMatP= 2.25D-09
 IDIUse=1 WtCom= 1.00D+00 WtEn= 0.00D+00
 Coeff-Com:  0.100D+01
 Coeff:      0.100D+01
 Gap=     0.541 Goal=   None    Shift=    0.000
 RMSDP=2.98D-06 MaxDP=8.08D-05 DE=-5.05D-08 OVMax= 1.29D-05

 Cycle  10  Pass 1  IDiag  1:
 RMSU=  5.44D-07    CP:  1.00D+00
 E= -253.449938776135     Delta-E=       -0.000000003056 Rises=F Damp=F
 DIIS: error= 1.33D-06 at cycle   2 NSaved=   2.
 NSaved= 2 IEnMin= 2 EnMin= -253.449938776135     IErMin= 2 ErrMin= 1.33D-06
 ErrMax= 1.33D-06  0.00D+00 EMaxC= 1.00D-01 BMatC= 6.65D-10 BMatP= 2.25D-09
 IDIUse=1 WtCom= 1.00D+00 WtEn= 0.00D+00
 Coeff-Com:  0.284D+00 0.716D+00
 Coeff:      0.284D+00 0.716D+00
 Gap=     0.541 Goal=   None    Shift=    0.000
 RMSDP=2.16D-07 MaxDP=5.06D-06 DE=-3.06D-09 OVMax= 1.01D-05

 Cycle  11  Pass 1  IDiag  1:
 RMSU=  1.92D-07    CP:  1.00D+00  1.18D+00
 E= -253.449938776954     Delta-E=       -0.000000000819 Rises=F Damp=F
 DIIS: error= 5.55D-07 at cycle   3 NSaved=   3.
 NSaved= 3 IEnMin= 3 EnMin= -253.449938776954     IErMin= 3 ErrMin= 5.55D-07
 ErrMax= 5.55D-07  0.00D+00 EMaxC= 1.00D-01 BMatC= 1.02D-10 BMatP= 6.65D-10
 IDIUse=1 WtCom= 1.00D+00 WtEn= 0.00D+00
 Coeff-Com: -0.318D+00-0.217D+00 0.154D+01
 Coeff:     -0.318D+00-0.217D+00 0.154D+01
 Gap=     0.541 Goal=   None    Shift=    0.000
 RMSDP=2.78D-07 MaxDP=6.81D-06 DE=-8.19D-10 OVMax= 1.05D-05

 Cycle  12  Pass 1  IDiag  1:
 RMSU=  6.05D-08    CP:  1.00D+00  1.62D+00  1.68D+00
 E= -253.449938777304     Delta-E=       -0.000000000350 Rises=F Damp=F
 DIIS: error= 1.19D-07 at cycle   4 NSaved=   4.
 NSaved= 4 IEnMin= 4 EnMin= -253.449938777304     IErMin= 4 ErrMin= 1.19D-07
 ErrMax= 1.19D-07  0.00D+00 EMaxC= 1.00D-01 BMatC= 3.52D-12 BMatP= 1.02D-10
 IDIUse=1 WtCom= 1.00D+00 WtEn= 0.00D+00
 Coeff-Com: -0.585D-01-0.567D-01 0.222D+00 0.893D+00
 Coeff:     -0.585D-01-0.567D-01 0.222D+00 0.893D+00
 Gap=     0.541 Goal=   None    Shift=    0.000
 RMSDP=3.54D-08 MaxDP=7.95D-07 DE=-3.50D-10 OVMax= 1.27D-06

 Cycle  13  Pass 1  IDiag  1:
 RMSU=  1.52D-08    CP:  1.00D+00  1.66D+00  1.78D+00  1.20D+00
 E= -253.449938777314     Delta-E=       -0.000000000010 Rises=F Damp=F
 DIIS: error= 5.38D-08 at cycle   5 NSaved=   5.
 NSaved= 5 IEnMin= 5 EnMin= -253.449938777314     IErMin= 5 ErrMin= 5.38D-08
 ErrMax= 5.38D-08  0.00D+00 EMaxC= 1.00D-01 BMatC= 6.69D-13 BMatP= 3.52D-12
 IDIUse=1 WtCom= 1.00D+00 WtEn= 0.00D+00
 Coeff-Com:  0.629D-01 0.439D-01-0.307D+00 0.575D-01 0.114D+01
 Coeff:      0.629D-01 0.439D-01-0.307D+00 0.575D-01 0.114D+01
 Gap=     0.541 Goal=   None    Shift=    0.000
 RMSDP=1.90D-08 MaxDP=4.29D-07 DE=-1.05D-11 OVMax= 6.35D-07

 Cycle  14  Pass 1  IDiag  1:
 RMSU=  5.35D-09    CP:  1.00D+00  1.67D+00  1.83D+00  1.41D+00  1.29D+00
 E= -253.449938777308     Delta-E=        0.000000000006 Rises=F Damp=F
 DIIS: error= 1.20D-08 at cycle   6 NSaved=   6.
 NSaved= 6 IEnMin= 5 EnMin= -253.449938777314     IErMin= 6 ErrMin= 1.20D-08
 ErrMax= 1.20D-08  0.00D+00 EMaxC= 1.00D-01 BMatC= 3.93D-14 BMatP= 6.69D-13
 IDIUse=1 WtCom= 1.00D+00 WtEn= 0.00D+00
 Coeff-Com:  0.104D-01 0.935D-02-0.462D-01-0.614D-01 0.136D+00 0.952D+00
 Coeff:      0.104D-01 0.935D-02-0.462D-01-0.614D-01 0.136D+00 0.952D+00
 Gap=     0.541 Goal=   None    Shift=    0.000
 RMSDP=3.44D-09 MaxDP=6.98D-08 DE= 6.14D-12 OVMax= 1.12D-07

 SCF Done:  E(RHF) =  -253.449938777     A.U. after   14 cycles
            NFock= 14  Conv=0.34D-08     -V/T= 2.9191
 KE= 1.320672617527D+02 PE=-1.221209989231D+03 EE= 4.976469373834D+02
 Leave Link  502 at Wed May 11 21:54:58 2022, MaxMem= 67108864000 cpu:              61.6 elap:               2.2
 (Enter /cm/shared/apps/gaussian/intel/EM64T/SSE4_2-enabled/binary//g16/l801.exe)
 Range of M.O.s used for correlation:     1   129
 NBasis=   129 NAE=    33 NBE=    33 NFC=     0 NFV=     0
 NROrb=    129 NOA=    33 NOB=    33 NVA=    96 NVB=    96

 **** Warning!!: The largest alpha MO coefficient is  0.28666249D+02

 Leave Link  801 at Wed May 11 21:54:58 2022, MaxMem= 67108864000 cpu:               1.3 elap:               0.1
 (Enter /cm/shared/apps/gaussian/intel/EM64T/SSE4_2-enabled/binary//g16/l906.exe)
 FulOut=F Deriv=T AODrv=T NAtomX=    19
   MMem=           0  MDisk=          33 MDiskD=          33
  W3Min=      549153 MinDsk=     1693460 NBas6D=         129
 NBas2D=        8499    NTT=        8385    LW2=     3308096
    MDV= 67108619569 MDiskM=     7225088 NBas2p=        8153
 Disk-based method using ON**2 memory for 33 occupieds at a time.
 Permanent disk used for amplitudes=    12443904 words.
 Estimated scratch disk usage=   132829337 words.
 IMap=   1   2   3   4   5   6   7   8   9  10  11  12  13  14  15  16  17  18  19  20
 IMap=  21  22  23  24  25  26  27  28  29  30  31  32  33
 Actual    scratch disk usage=   121178777 words.
 JobTyp=1 Pass  1:  I=   1 to  33 NPSUse= 28 ParTrn=T ParDer=T DoDerP=T.
 (rs|ai) integrals will be sorted in core.
 Spin components of T(2) and E(2):
     alpha-alpha T2 =       0.3587816625D-01 E2=     -0.1157328728D+00
     alpha-beta  T2 =       0.2105493348D+00 E2=     -0.6905543597D+00
     beta-beta   T2 =       0.3587816625D-01 E2=     -0.1157328728D+00
 The integrals were generated   1 times.
 ANorm=    0.1132389362D+01
 E2 =    -0.9220201053D+00 EUMP2 =    -0.25437195888256D+03
 Leave Link  906 at Wed May 11 21:55:13 2022, MaxMem= 67108864000 cpu:             429.2 elap:              15.4
 (Enter /cm/shared/apps/gaussian/intel/EM64T/SSE4_2-enabled/binary//g16/l1101.exe)
 Using compressed Sx but separate Hx and Fx, NAtomX=    19.
 Will process     20 centers per pass.
   1 Symmetry operations used in ECPInt.
 ECPInt:  NShTT=    2346 NPrTT=    7709 LenC2=    2300 LenP2D=    5871.
 LDataN:  DoStor=T MaxTD1= 8 Len=  415
 Leave Link 1101 at Wed May 11 21:55:14 2022, MaxMem= 67108864000 cpu:              13.2 elap:               0.5
 (Enter /cm/shared/apps/gaussian/intel/EM64T/SSE4_2-enabled/binary//g16/l1102.exe)
 Leave Link 1102 at Wed May 11 21:55:14 2022, MaxMem= 67108864000 cpu:               0.7 elap:               0.0
 (Enter /cm/shared/apps/gaussian/intel/EM64T/SSE4_2-enabled/binary//g16/l1110.exe)
 Forming Gx(P) for the SCF density, NAtomX=    19.
 Integral derivatives from FoFJK, PRISM(SPDF).
 Do as many integral derivatives as possible in FoFJK.
 G2DrvN: MDV=   67108862534.
 G2DrvN: will do    20 centers at a time, making    1 passes.
 Calling FoFCou, ICntrl=  3107 FMM=F I1Cent=   0 AccDes= 0.00D+00.
 FoFJK:  IHMeth= 1 ICntrl=    3107 DoSepK=F KAlg= 0 I1Cent=           0 FoldK=F
 IRaf=         0 NMat=       1 IRICut=       1 DoRegI=T DoRafI=F ISym2E= 0 IDoP0=0 IntGTp=1.
 FoFCou: FMM=F IPFlag=           0 FMFlag=      100000 FMFlg1=           0
         NFxFlg=           0 DoJE=F BraDBF=F KetDBF=F FulRan=T
         wScrn=  0.000000 ICntrl=      3107 IOpCl=  0 I1Cent=           0 NGrid=           0
         NMat0=    1 NMatS0=      1 NMatT0=    0 NMatD0=    1 NMtDS0=    0 NMtDT0=    0
 Symmetry not used in FoFCou.
 End of G2Drv F.D. properties file   721 does not exist.
 End of G2Drv F.D. properties file   722 does not exist.
 End of G2Drv F.D. properties file   788 does not exist.
 Leave Link 1110 at Wed May 11 21:55:14 2022, MaxMem= 67108864000 cpu:              12.7 elap:               0.5
 (Enter /cm/shared/apps/gaussian/intel/EM64T/SSE4_2-enabled/binary//g16/l1002.exe)
 Minotr:  Closed shell wavefunction.
          IDoAtm=1111111111111111111
          Direct CPHF calculation.
          Differentiating once with respect to electric field.
                with respect to dipole field.
          Differentiating once with respect to nuclear coordinates.
          Requested convergence is 1.0D-08 RMS, and 1.0D-07 maximum.
          Secondary convergence is 1.0D-12 RMS, and 1.0D-12 maximum.
          NewPWx=T KeepS1=T KeepF1=T KeepIn=T MapXYZ=F SortEE=F KeepMc=T.
 Keep R1 ints in memory in canonical form, NReq=41172999.
 FoFCou: FMM=F IPFlag=           0 FMFlag=           0 FMFlg1=           0
         NFxFlg=           0 DoJE=F BraDBF=F KetDBF=F FulRan=T
         wScrn=  0.000000 ICntrl=       600 IOpCl=  0 I1Cent=           0 NGrid=           0
         NMat0=    1 NMatS0=   8385 NMatT0=    0 NMatD0=    1 NMtDS0=    0 NMtDT0=    0
 Symmetry not used in FoFCou.
 Two-electron integral symmetry not used.
          MDV=   67108864000 using IRadAn=       1.
          Solving linear equations simultaneously, MaxMat=       0.
          There are    60 degrees of freedom in the 1st order CPHF.  IDoFFX=6 NUNeed=    60.
     57 vectors produced by pass  0 Test12= 5.28D-15 1.67D-09 XBig12= 1.13D+01 1.15D+00.
 AX will form    57 AO Fock derivatives at one time.
     57 vectors produced by pass  1 Test12= 5.28D-15 1.67D-09 XBig12= 1.66D-01 6.24D-02.
     57 vectors produced by pass  2 Test12= 5.28D-15 1.67D-09 XBig12= 1.97D-03 6.59D-03.
     57 vectors produced by pass  3 Test12= 5.28D-15 1.67D-09 XBig12= 1.56D-05 6.71D-04.
     57 vectors produced by pass  4 Test12= 5.28D-15 1.67D-09 XBig12= 1.12D-07 7.79D-05.
     57 vectors produced by pass  5 Test12= 5.28D-15 1.67D-09 XBig12= 6.40D-10 3.51D-06.
     34 vectors produced by pass  6 Test12= 5.28D-15 1.67D-09 XBig12= 3.55D-12 2.59D-07.
      4 vectors produced by pass  7 Test12= 5.28D-15 1.67D-09 XBig12= 1.51D-14 1.44D-08.
 InvSVY:  IOpt=1 It=  1 EMax= 3.11D-15
 Solved reduced A of dimension   380 with    60 vectors.
 FullF1:  Do perturbations      1 to      60.
 Saving first derivative matrices.
 End of Minotr F.D. properties file   721 does not exist.
 End of Minotr F.D. properties file   722 does not exist.
 End of Minotr F.D. properties file   788 does not exist.
 Leave Link 1002 at Wed May 11 21:55:16 2022, MaxMem= 67108864000 cpu:              46.1 elap:               1.7
 (Enter /cm/shared/apps/gaussian/intel/EM64T/SSE4_2-enabled/binary//g16/l811.exe)
 MDV= 67108864000.
 Form MO integral derivatives with frozen-active canonical formalism.
 MOERI=1 MOERIx=1 NAtoms=    19 NAtomX=    19.
 Discarding MO integrals.
 MO basis two electron integral derivatives will not be stored on disk.
 IAlg= 3 DoFC=T DoPWx=T Debug=F.
 Reordered first order wavefunction length =     20072448
 In DefCFB: NBatch=  1 ICI= 33 ICA= 96 LFMax= 96
            Large arrays: LIAPS=   210874752 LIARS=   111567456 words.
 In StABat: MaxSiz= 39 MinSiz= 13 NAtomB=  4
 DoIAMN: NPSUse= 28.
 Leave Link  811 at Wed May 11 21:55:57 2022, MaxMem= 67108864000 cpu:            1155.6 elap:              41.3
 (Enter /cm/shared/apps/gaussian/intel/EM64T/SSE4_2-enabled/binary//g16/l804.exe)
 Closed-shell transformation, MDV= 67108864000 ITran=4 ISComp=1.
 Semi-Direct transformation.
 ModeAB=           4 MOrb=            33 LenV=   67108312496
 LASXX=     28702344 LTotXX=    28702344 LenRXX=    58192761
 LTotAB=    29490417 MaxLAS=    34336962 LenRXY=           0
 NonZer=    86895105 LenScr=   131092480 LnRSAI=    34336962
 LnScr1=    52279296 LExtra=           0 Total=    275901499
 MaxDsk=          -1 SrtSym=           T ITran=            4
 DoSDTr:  NPSUse= 28
 JobTyp=0 Pass  1:  I=   1 to  33.
 (rs|ai) integrals will be sorted in core.
 Complete sort for first half transformation.
 First half transformation complete.
 Begin second half transformation for I=  10.
 Begin second half transformation for I=  20.
 Begin second half transformation for I=  30.
 Complete sort for second half transformation.
 Second half transformation complete.
 SymMOI:  orbitals are not symmetric.
 Spin components of T(2) and E(2):
     alpha-alpha T2 =       0.3587816625D-01 E2=     -0.1157328728D+00
     alpha-beta  T2 =       0.2105493348D+00 E2=     -0.6905543597D+00
     beta-beta   T2 =       0.3587816625D-01 E2=     -0.1157328728D+00
 ANorm=    0.1601440394D+01
 E2 =    -0.9220201053D+00 EUMP2 =    -0.25437195888256D+03
 Leave Link  804 at Wed May 11 21:56:03 2022, MaxMem= 67108864000 cpu:             151.2 elap:               5.5
 (Enter /cm/shared/apps/gaussian/intel/EM64T/SSE4_2-enabled/binary//g16/l1002.exe)
 Minotr:  Closed shell wavefunction.
          Computing MP2/KS-MP2 derivatives.
          Using Z-Vector for PSCF gradient.
          Skipping F1 and S1 gradient terms here.
          IDoAtm=1111111111111111111
          Using MO integrals in the linear equations.
          Forming densities via direct SCF.
          Differentiating once with respect to electric field.
                with respect to dipole field.
          Differentiating once with respect to nuclear coordinates.
          Requested convergence is 1.0D-10 RMS, and 1.0D-09 maximum.
          NewPWx=F KeepS1=T KeepF1=T KeepIn=T MapXYZ=F SortEE=F KeepMc=T.
          MDV=   67108864000 using IRadAn=       5.
          Solving linear equations separately, MaxMat=       0.
          There are     1 degrees of freedom in the 1st order CPHF.  IDoFFX=0 NUNeed=     1.
 FoFJK:  IHMeth= 1 ICntrl=       0 DoSepK=F KAlg= 0 I1Cent=           0 FoldK=F
 IRaf=         0 NMat=       1 IRICut=       1 DoRegI=T DoRafI=F ISym2E= 0 IDoP0=0 IntGTp=1.
 FoFCou: FMM=F IPFlag=           0 FMFlag=      100000 FMFlg1=           0
         NFxFlg=           0 DoJE=F BraDBF=F KetDBF=F FulRan=T
         wScrn=  0.000000 ICntrl=         0 IOpCl=  0 I1Cent=           0 NGrid=           0
         NMat0=    1 NMatS0=      1 NMatT0=    0 NMatD0=    1 NMtDS0=    0 NMtDT0=    0
 Symmetry not used in FoFCou.
 LinEq1:  Iter=  0 NonCon=     1 RMS=6.32D-03 Max=9.42D-02 NDo=     1
 LinEq1:  Iter=  1 NonCon=     1 RMS=1.36D-03 Max=1.17D-02 NDo=     1
 LinEq1:  Iter=  2 NonCon=     1 RMS=4.33D-04 Max=7.32D-03 NDo=     1
 LinEq1:  Iter=  3 NonCon=     1 RMS=1.28D-04 Max=1.93D-03 NDo=     1
 LinEq1:  Iter=  4 NonCon=     1 RMS=4.41D-05 Max=6.69D-04 NDo=     1
 LinEq1:  Iter=  5 NonCon=     1 RMS=9.81D-06 Max=6.84D-05 NDo=     1
 LinEq1:  Iter=  6 NonCon=     1 RMS=4.24D-06 Max=4.39D-05 NDo=     1
 LinEq1:  Iter=  7 NonCon=     1 RMS=6.90D-07 Max=7.10D-06 NDo=     1
 LinEq1:  Iter=  8 NonCon=     1 RMS=1.23D-07 Max=1.15D-06 NDo=     1
 LinEq1:  Iter=  9 NonCon=     1 RMS=5.69D-08 Max=6.43D-07 NDo=     1
 LinEq1:  Iter= 10 NonCon=     1 RMS=1.38D-08 Max=1.78D-07 NDo=     1
 LinEq1:  Iter= 11 NonCon=     1 RMS=3.06D-09 Max=2.62D-08 NDo=     1
 LinEq1:  Iter= 12 NonCon=     1 RMS=1.49D-09 Max=1.76D-08 NDo=     1
 LinEq1:  Iter= 13 NonCon=     1 RMS=2.72D-10 Max=3.00D-09 NDo=     1
 LinEq1:  Iter= 14 NonCon=     0 RMS=5.37D-11 Max=4.52D-10 NDo=     1
 Linear equations converged to 1.000D-10 1.000D-09 after    14 iterations.
 End of Minotr F.D. properties file   721 does not exist.
 End of Minotr F.D. properties file   722 does not exist.
 End of Minotr F.D. properties file   788 does not exist.
 Leave Link 1002 at Wed May 11 21:56:05 2022, MaxMem= 67108864000 cpu:              68.1 elap:               2.5
 (Enter /cm/shared/apps/gaussian/intel/EM64T/SSE4_2-enabled/binary//g16/l1102.exe)
 Use density number 2.
 Symmetrizing basis deriv contribution to polar:
 IMax=3 JMax=2 DiffMx= 0.00D+00
 Leave Link 1102 at Wed May 11 21:56:05 2022, MaxMem= 67108864000 cpu:               0.8 elap:               0.1
 (Enter /cm/shared/apps/gaussian/intel/EM64T/SSE4_2-enabled/binary//g16/l1110.exe)
 Forming Gx(P) for generalized density number  2 NAtomX=    19.
 Integral derivatives from FoFJK, PRISM(SPDF).
 Do as many integral derivatives as possible in FoFJK.
 G2DrvN: MDV=   67108862534.
 G2DrvN: will do    20 centers at a time, making    1 passes.
 Calling FoFCou, ICntrl=  3107 FMM=F I1Cent=   0 AccDes= 0.00D+00.
 FoFJK:  IHMeth= 1 ICntrl=    3107 DoSepK=F KAlg= 0 I1Cent=           0 FoldK=F
 IRaf=         0 NMat=       1 IRICut=       1 DoRegI=T DoRafI=F ISym2E= 0 IDoP0=0 IntGTp=1.
 FoFCou: FMM=F IPFlag=           0 FMFlag=      100000 FMFlg1=           0
         NFxFlg=           0 DoJE=F BraDBF=F KetDBF=F FulRan=T
         wScrn=  0.000000 ICntrl=      3107 IOpCl=  0 I1Cent=           0 NGrid=           0
         NMat0=    1 NMatS0=      1 NMatT0=    0 NMatD0=    1 NMtDS0=    0 NMtDT0=    0
 Symmetry not used in FoFCou.
 End of G2Drv F.D. properties file   721 does not exist.
 End of G2Drv F.D. properties file   722 does not exist.
 End of G2Drv F.D. properties file   788 does not exist.
 Leave Link 1110 at Wed May 11 21:56:06 2022, MaxMem= 67108864000 cpu:              13.0 elap:               0.5
 (Enter /cm/shared/apps/gaussian/intel/EM64T/SSE4_2-enabled/binary//g16/l1112.exe)
 MP22nd: MDV=   67108864000
 This link is doing NAtomX=    19 total of    60 degrees of freedom.
 Using ON3 I/O method in MakUI.
 Using Ix for Sx.
 Using OV2 memory method for fx*t*t/D, MaxI=    33 DoOO2=F NP=  28.
 R2 and R3 integrals will be kept in memory, NReq=    71415045.
 FoFCou: FMM=F IPFlag=           0 FMFlag=           0 FMFlg1=           0
         NFxFlg=           0 DoJE=F BraDBF=F KetDBF=F FulRan=T
         wScrn=  0.000000 ICntrl=       600 IOpCl=  0 I1Cent=           0 NGrid=           0
         NMat0=    1 NMatS0=      1 NMatT0=    0 NMatD0=    1 NMtDS0=    0 NMtDT0=    0
 Symmetry not used in FoFCou.
 DD1Dir will call FoFMem   1 times, MxPair=      1122
 NAB=   561 NAA=     0 NBB=     0.
 Symmetry is being used.
 FoFJK:  IHMeth= 1 ICntrl=       0 DoSepK=F KAlg= 0 I1Cent=           0 FoldK=F
 IRaf=         0 NMat=      60 IRICut=     150 DoRegI=T DoRafI=T ISym2E= 2 IDoP0=0 IntGTp=1.
 Discarding MO integrals.
 Leave Link 1112 at Wed May 11 21:56:33 2022, MaxMem= 67108864000 cpu:             771.6 elap:              27.6
 (Enter /cm/shared/apps/gaussian/intel/EM64T/SSE4_2-enabled/binary//g16/l601.exe)
 Copying SCF densities to generalized density rwf, IOpCl= 0 IROHF=0.

 **********************************************************************

            Population analysis using the SCF density.

 **********************************************************************

 Orbital symmetries:
       Occupied  (A) (A) (A) (A) (A) (A) (A) (A) (A) (A) (A) (A)
                 (A) (A) (A) (A) (A) (A) (A) (A) (A) (A) (A) (A)
                 (A) (A) (A) (A) (A) (A) (A) (A) (A)
       Virtual   (A) (A) (A) (A) (A) (A) (A) (A) (A) (A) (A) (A)
                 (A) (A) (A) (A) (A) (A) (A) (A) (A) (A) (A) (A)
                 (A) (A) (A) (A) (A) (A) (A) (A) (A) (A) (A) (A)
                 (A) (A) (A) (A) (A) (A) (A) (A) (A) (A) (A) (A)
                 (A) (A) (A) (A) (A) (A) (A) (A) (A) (A) (A) (A)
                 (A) (A) (A) (A) (A) (A) (A) (A) (A) (A) (A) (A)
                 (A) (A) (A) (A) (A) (A) (A) (A) (A) (A) (A) (A)
                 (A) (A) (A) (A) (A) (A) (A) (A) (A) (A) (A) (A)
 The electronic state is 1-A.
 Alpha  occ. eigenvalues --   -5.41316  -3.41006  -3.40622  -3.40363  -1.69567
 Alpha  occ. eigenvalues --   -1.67698  -1.66561  -1.66072  -1.64440  -1.63942
 Alpha  occ. eigenvalues --   -1.07359  -1.06512  -1.04993  -1.02835  -1.01257
 Alpha  occ. eigenvalues --   -1.00817  -1.00370  -0.99768  -0.98329  -0.97697
 Alpha  occ. eigenvalues --   -0.97306  -0.93023  -0.91377  -0.88247  -0.86800
 Alpha  occ. eigenvalues --   -0.85773  -0.84218  -0.82722  -0.81557  -0.81247
 Alpha  occ. eigenvalues --   -0.80523  -0.80139  -0.77984
 Alpha virt. eigenvalues --   -0.23901  -0.18009  -0.16036  -0.15043  -0.14368
 Alpha virt. eigenvalues --   -0.10669  -0.09360  -0.08187  -0.07721  -0.06333
 Alpha virt. eigenvalues --   -0.05665  -0.04849  -0.04124  -0.03053  -0.01915
 Alpha virt. eigenvalues --   -0.01549   0.00243   0.00572   0.01248   0.01663
 Alpha virt. eigenvalues --    0.02631   0.02737   0.03735   0.04502   0.04869
 Alpha virt. eigenvalues --    0.05968   0.07179   0.08102   0.08876   0.09878
 Alpha virt. eigenvalues --    0.11220   0.12822   0.13345   0.13905   0.15565
 Alpha virt. eigenvalues --    0.16360   0.17335   0.18535   0.19785   0.21455
 Alpha virt. eigenvalues --    0.24073   0.24545   0.26026   0.27875   0.36760
 Alpha virt. eigenvalues --    0.64843   0.67868   0.69240   0.71106   0.93356
 Alpha virt. eigenvalues --    0.98732   1.05609   1.06378   1.07260   1.08172
 Alpha virt. eigenvalues --    1.08474   1.09375   1.10679   1.11785   1.12041
 Alpha virt. eigenvalues --    1.13950   1.14211   1.14885   1.16415   1.16629
 Alpha virt. eigenvalues --    1.17998   1.18835   1.19537   1.20783   1.21110
 Alpha virt. eigenvalues --    1.23605   1.24926   1.26183   1.28235   1.29761
 Alpha virt. eigenvalues --    1.33154   1.34125   1.35701   1.37529   1.38362
 Alpha virt. eigenvalues --    1.39471   1.49625   1.51021   1.55339   2.16086
 Alpha virt. eigenvalues --    2.31531   2.38527   2.53533   2.85567   3.07738
 Alpha virt. eigenvalues --    4.26366  15.49940  41.60323  41.67242  41.74757
 Alpha virt. eigenvalues --   81.48129
          Condensed to atoms (all electrons):
               1          2          3          4          5          6
     1  Hg  18.387431   0.026724  -0.004166  -0.002026  -0.009658   0.000967
     2  O    0.026724   6.452090   0.254743   0.259277  -0.009884  -0.000013
     3  H   -0.004166   0.254743   0.229679  -0.013420   0.002508  -0.000048
     4  H   -0.002026   0.259277  -0.013420   0.241162   0.000704  -0.000000
     5  O   -0.009658  -0.009884   0.002508   0.000704   6.439728   0.263991
     6  H    0.000967  -0.000013  -0.000048  -0.000000   0.263991   0.243692
     7  H    0.000794  -0.000014  -0.000012  -0.000005   0.262613  -0.015884
     8  O   -0.002615  -0.000053   0.000002   0.000001  -0.001050   0.000002
     9  H    0.000748  -0.000002   0.000000  -0.000000   0.000007  -0.000000
    10  H    0.000389   0.000001   0.000000  -0.000000   0.000060  -0.000000
    11  O    0.108233  -0.005491   0.000074   0.000249  -0.000073   0.000001
    12  H   -0.003521   0.000144  -0.000000  -0.000000   0.000001  -0.000000
    13  H   -0.004129  -0.000080  -0.000001   0.000008   0.000005  -0.000000
    14  O    0.123934  -0.007533   0.001319   0.000095  -0.018575  -0.000354
    15  H   -0.003337   0.000119   0.000001  -0.000000   0.000220  -0.000009
    16  H   -0.003898   0.000192  -0.000134   0.000010   0.029590  -0.000752
    17  O   -0.000932  -0.000008   0.000001   0.000000   0.000002  -0.000000
    18  H    0.000547  -0.000002  -0.000000   0.000000  -0.000000   0.000000
    19  H    0.000355   0.000000  -0.000000  -0.000000  -0.000000   0.000000
               7          8          9         10         11         12
     1  Hg   0.000794  -0.002615   0.000748   0.000389   0.108233  -0.003521
     2  O   -0.000014  -0.000053  -0.000002   0.000001  -0.005491   0.000144
     3  H   -0.000012   0.000002   0.000000   0.000000   0.000074  -0.000000
     4  H   -0.000005   0.000001  -0.000000  -0.000000   0.000249  -0.000000
     5  O    0.262613  -0.001050   0.000007   0.000060  -0.000073   0.000001
     6  H   -0.015884   0.000002  -0.000000  -0.000000   0.000001  -0.000000
     7  H    0.246993   0.000038  -0.000000  -0.000000   0.000001   0.000000
     8  O    0.000038   6.390289   0.262803   0.260373   0.000007   0.000002
     9  H   -0.000000   0.262803   0.239283  -0.014815  -0.000000  -0.000000
    10  H   -0.000000   0.260373  -0.014815   0.245001   0.000000  -0.000000
    11  O    0.000001   0.000007  -0.000000   0.000000   6.595032   0.159077
    12  H    0.000000   0.000002  -0.000000  -0.000000   0.159077   0.140762
    13  H    0.000000   0.000003  -0.000000   0.000000   0.242738  -0.006269
    14  O   -0.000197  -0.035129   0.000666   0.000732   0.000020  -0.000007
    15  H    0.000004   0.051687  -0.001230  -0.001085  -0.000142   0.000000
    16  H   -0.000590   0.000152  -0.000015  -0.000001   0.000065   0.000000
    17  O   -0.000000   0.000014  -0.000000  -0.000000  -0.053433   0.078949
    18  H   -0.000000  -0.000000  -0.000000  -0.000000   0.001738  -0.002180
    19  H    0.000000  -0.000000   0.000000  -0.000000   0.001373  -0.002021
              13         14         15         16         17         18
     1  Hg  -0.004129   0.123934  -0.003337  -0.003898  -0.000932   0.000547
     2  O   -0.000080  -0.007533   0.000119   0.000192  -0.000008  -0.000002
     3  H   -0.000001   0.001319   0.000001  -0.000134   0.000001  -0.000000
     4  H    0.000008   0.000095  -0.000000   0.000010   0.000000   0.000000
     5  O    0.000005  -0.018575   0.000220   0.029590   0.000002  -0.000000
     6  H   -0.000000  -0.000354  -0.000009  -0.000752  -0.000000   0.000000
     7  H    0.000000  -0.000197   0.000004  -0.000590  -0.000000  -0.000000
     8  O    0.000003  -0.035129   0.051687   0.000152   0.000014  -0.000000
     9  H   -0.000000   0.000666  -0.001230  -0.000015  -0.000000  -0.000000
    10  H    0.000000   0.000732  -0.001085  -0.000001  -0.000000  -0.000000
    11  O    0.242738   0.000020  -0.000142   0.000065  -0.053433   0.001738
    12  H   -0.006269  -0.000007   0.000000   0.000000   0.078949  -0.002180
    13  H    0.233240  -0.000111   0.000000  -0.000000   0.001425  -0.000032
    14  O   -0.000111   6.648118   0.180609   0.205632  -0.000006   0.000001
    15  H    0.000000   0.180609   0.146320  -0.004267   0.000004  -0.000000
    16  H   -0.000000   0.205632  -0.004267   0.168753   0.000000  -0.000000
    17  O    0.001425  -0.000006   0.000004   0.000000   6.363479   0.258464
    18  H   -0.000032   0.000001  -0.000000  -0.000000   0.258464   0.231553
    19  H   -0.000030   0.000002   0.000000  -0.000000   0.257517  -0.013061
              19
     1  Hg   0.000355
     2  O    0.000000
     3  H   -0.000000
     4  H   -0.000000
     5  O   -0.000000
     6  H    0.000000
     7  H    0.000000
     8  O   -0.000000
     9  H    0.000000
    10  H   -0.000000
    11  O    0.001373
    12  H   -0.002021
    13  H   -0.000030
    14  O    0.000002
    15  H    0.000000
    16  H   -0.000000
    17  O    0.257517
    18  H   -0.013061
    19  H    0.236539
 Mulliken charges:
               1
     1  Hg   1.384160
     2  O   -0.970209
     3  H    0.529453
     4  H    0.513945
     5  O   -0.960190
     6  H    0.508407
     7  H    0.506259
     8  O   -0.926525
     9  H    0.512557
    10  H    0.509345
    11  O   -1.049470
    12  H    0.635064
    13  H    0.533233
    14  O   -1.099219
    15  H    0.631104
    16  H    0.605263
    17  O   -0.905476
    18  H    0.522971
    19  H    0.519327
 Sum of Mulliken charges =   2.00000
 Mulliken charges with hydrogens summed into heavy atoms:
               1
     1  Hg   1.384160
     2  O    0.073189
     5  O    0.054475
     8  O    0.095378
    11  O    0.118827
    14  O    0.137148
    17  O    0.136822
         Mulliken charges condensed to fragments:
      1      1.384160
      2      0.615840
 APT charges:
               1
     1  Hg   1.492315
     2  O   -0.779361
     3  H    0.402643
     4  H    0.356230
     5  O   -0.747454
     6  H    0.373678
     7  H    0.368938
     8  O   -0.788147
     9  H    0.385144
    10  H    0.377246
    11  O   -0.955995
    12  H    0.879249
    13  H    0.345817
    14  O   -1.064344
    15  H    0.773335
    16  H    0.604235
    17  O   -0.821024
    18  H    0.402382
    19  H    0.395113
 Sum of APT charges =   2.00000
 APT charges with hydrogens summed into heavy atoms:
               1
     1  Hg   1.492315
     2  O   -0.020488
     5  O   -0.004838
     8  O   -0.025757
    11  O    0.269071
    14  O    0.313226
    17  O   -0.023529
         APT charges condensed to fragments:
      1      1.492315
      2      0.507685
 Electronic spatial extent (au):  <R**2>=           1873.8273
 Charge=              2.0000 electrons
 Dipole moment (field-independent basis, Debye):
    X=              1.2794    Y=              1.4763    Z=             -1.1888  Tot=              2.2868
 Quadrupole moment (field-independent basis, Debye-Ang):
   XX=             49.5473   YY=            -16.4052   ZZ=            -49.2036
   XY=              1.5345   XZ=              1.6869   YZ=             -3.9664
 Traceless Quadrupole moment (field-independent basis, Debye-Ang):
   XX=             54.9011   YY=            -11.0514   ZZ=            -43.8498
   XY=              1.5345   XZ=              1.6869   YZ=             -3.9664
 Octapole moment (field-independent basis, Debye-Ang**2):
  XXX=            -88.5611  YYY=             40.0593  ZZZ=             -4.4259  XYY=             78.9207
  XXY=             30.3264  XXZ=              4.3396  XZZ=             -6.8235  YZZ=              1.9415
  YYZ=              0.3237  XYZ=            -11.6236
 Hexadecapole moment (field-independent basis, Debye-Ang**3):
 XXXX=            457.8306 YYYY=           -201.6671 ZZZZ=            -62.8884 XXXY=           -244.1964
 XXXZ=            -44.5739 YYYX=            228.7315 YYYZ=            -22.9206 ZZZX=             -1.0789
 ZZZY=             -9.6749 XXYY=            -94.4490 XXZZ=           -167.1404 YYZZ=           -105.7609
 XXYZ=            -45.6051 YYXZ=             11.1948 ZZXY=             15.5732
 N-N= 3.380458513173D+02 E-N=-1.221209990166D+03  KE= 1.320672617527D+02
  Exact polarizability:  70.164   0.021  57.538  -0.173   0.149  44.060
 Approx polarizability:  39.410  -0.146  35.463  -0.815  -0.282  33.143
 No NMR shielding tensors so no spin-rotation constants.
 Leave Link  601 at Wed May 11 21:56:34 2022, MaxMem= 67108864000 cpu:               4.4 elap:               0.2
 (Enter /cm/shared/apps/gaussian/intel/EM64T/SSE4_2-enabled/binary//g16/l701.exe)
 ... and contract with generalized density number  2.
 Compute integral second derivatives.
   1 Symmetry operations used in ECPInt.
 ECPInt:  NShTT=    2346 NPrTT=    7709 LenC2=    2300 LenP2D=    5871.
 LDataN:  DoStor=T MaxTD1= 9 Len=  602
 Leave Link  701 at Wed May 11 21:56:35 2022, MaxMem= 67108864000 cpu:              40.0 elap:               1.5
 (Enter /cm/shared/apps/gaussian/intel/EM64T/SSE4_2-enabled/binary//g16/l702.exe)
 L702 exits ... SP integral derivatives will be done elsewhere.
 Leave Link  702 at Wed May 11 21:56:35 2022, MaxMem= 67108864000 cpu:               0.6 elap:               0.0
 (Enter /cm/shared/apps/gaussian/intel/EM64T/SSE4_2-enabled/binary//g16/l703.exe)
 Integral derivatives from FoFJK, PRISM(SPDF).
 Compute integral second derivatives, UseDBF=F ICtDFT=           0.
 Calling FoFJK, ICntrl=  10100127 FMM=F ISym2X=0 I1Cent= 0 IOpClX= 0 NMat=1 NMatS=1 NMatT=0.
 FoFJK:  IHMeth= 1 ICntrl=10100127 DoSepK=F KAlg= 0 I1Cent=           0 FoldK=F
 IRaf=         0 NMat=       1 IRICut=       1 DoRegI=T DoRafI=F ISym2E= 0 IDoP0=0 IntGTp=1.
 FoFCou: FMM=F IPFlag=           0 FMFlag=      100000 FMFlg1=         800
         NFxFlg=           0 DoJE=F BraDBF=F KetDBF=F FulRan=T
         wScrn=  0.000000 ICntrl=  10100127 IOpCl=  0 I1Cent=           0 NGrid=           0
         NMat0=    1 NMatS0=      1 NMatT0=    0 NMatD0=    1 NMtDS0=    0 NMtDT0=    0
 Symmetry not used in FoFCou.
 Leave Link  703 at Wed May 11 21:56:36 2022, MaxMem= 67108864000 cpu:              21.7 elap:               0.8
 (Enter /cm/shared/apps/gaussian/intel/EM64T/SSE4_2-enabled/binary//g16/l716.exe)
 Dipole        = 5.12372014D-01 5.55144418D-01-4.08348174D-01
 Polarizability= 7.01636792D+01 2.05294755D-02 5.75375732D+01
                -1.72547769D-01 1.48891261D-01 4.40603947D+01
 Full mass-weighted force constant matrix:
 Low frequencies --- -350.1009 -333.7642 -312.4639 -160.9470 -107.8545  -95.3706
 Low frequencies ---  -74.7017  -36.2757  -30.6810
 ******    6 imaginary frequencies (negative Signs) ****** 
 Diagonal vibrational polarizability:
      209.5697721     592.0335760     270.4334448
 Harmonic frequencies (cm**-1), IR intensities (KM/Mole), Raman scattering
 activities (A**4/AMU), depolarization ratios for plane and unpolarized
 incident light, reduced masses (AMU), force constants (mDyne/A),
 and normal coordinates:
                      1                      2                      3
                      A                      A                      A
 Frequencies --   -349.4698              -333.6460              -311.5000
 Red. masses --      1.0222                 1.0273                 1.0343
 Frc consts  --      0.0736                 0.0674                 0.0591
 IR Inten    --     25.4342                31.7092                47.8198
  Atom  AN      X      Y      Z        X      Y      Z        X      Y      Z
     1  80    -0.00  -0.00   0.00     0.00   0.00  -0.00     0.00  -0.00   0.00
     2   8    -0.00  -0.00   0.01    -0.02  -0.01   0.00     0.00   0.00   0.01
     3   1     0.00  -0.00  -0.02     0.06  -0.03  -0.49    -0.00  -0.00   0.01
     4   1     0.00   0.01   0.03     0.06   0.11   0.49    -0.00   0.00   0.02
     5   8     0.00  -0.00   0.01     0.01   0.00  -0.02     0.00   0.00   0.00
     6   1    -0.02  -0.02   0.02    -0.24  -0.40   0.07     0.00   0.02   0.00
     7   1     0.02   0.02   0.02     0.25   0.42   0.16    -0.00  -0.01   0.00
     8   8    -0.00   0.00   0.02     0.00  -0.00  -0.00    -0.00   0.00  -0.01
     9   1     0.64  -0.27   0.06    -0.03   0.01  -0.01     0.01  -0.00  -0.02
    10   1    -0.61   0.22  -0.29     0.03  -0.01   0.01    -0.01  -0.00  -0.02
    11   8     0.00  -0.00  -0.00     0.00  -0.00   0.00    -0.00   0.01  -0.01
    12   1    -0.00   0.00  -0.00     0.00  -0.00  -0.01     0.01   0.04  -0.05
    13   1     0.00  -0.01   0.00     0.01  -0.03   0.02     0.01   0.01  -0.02
    14   8     0.00   0.00  -0.01    -0.00   0.00   0.01     0.00   0.00  -0.00
    15   1     0.00  -0.02  -0.06     0.00  -0.00   0.01    -0.00  -0.00  -0.01
    16   1     0.00  -0.00  -0.01    -0.00  -0.00   0.06     0.00   0.00  -0.00
    17   8    -0.00   0.00  -0.01     0.00  -0.00  -0.00    -0.00  -0.02   0.03
    18   1     0.00   0.01   0.00    -0.00  -0.01  -0.01    -0.28  -0.42  -0.48
    19   1    -0.00  -0.01  -0.01     0.00   0.01  -0.00     0.31   0.60   0.23
                      4                      5                      6
                      A                      A                      A
 Frequencies --   -150.2425               -99.3370               -95.2140
 Red. masses --      1.5200                 2.3895                 2.3367
 Frc consts  --      0.0202                 0.0139                 0.0125
 IR Inten    --     17.2203                14.6248                36.6665
  Atom  AN      X      Y      Z        X      Y      Z        X      Y      Z
     1  80     0.00   0.00  -0.00    -0.00  -0.01  -0.01     0.00   0.01  -0.02
     2   8    -0.04  -0.04   0.10     0.04   0.01  -0.09    -0.02   0.00   0.02
     3   1    -0.01  -0.06  -0.12     0.04   0.07  -0.08    -0.02  -0.03  -0.03
     4   1    -0.05   0.14   0.64     0.09  -0.05  -0.21    -0.05   0.04   0.09
     5   8     0.01  -0.00  -0.07    -0.00  -0.02   0.10    -0.00  -0.04   0.15
     6   1     0.12   0.42  -0.07    -0.30   0.08   0.31    -0.27   0.15   0.35
     7   1    -0.09  -0.42  -0.13     0.27  -0.14   0.34     0.23  -0.24   0.36
     8   8    -0.00   0.03   0.09    -0.01   0.05   0.05     0.00   0.01  -0.00
     9   1    -0.06  -0.04   0.18    -0.11  -0.05   0.16    -0.03  -0.02   0.03
    10   1     0.04   0.13   0.16     0.05   0.19   0.14     0.02   0.05   0.03
    11   8     0.01  -0.01   0.01    -0.01  -0.06   0.18    -0.01   0.06  -0.11
    12   1    -0.00  -0.01  -0.01    -0.00  -0.02   0.11    -0.00   0.03  -0.01
    13   1     0.02  -0.06   0.04    -0.06  -0.27   0.32     0.01   0.26  -0.22
    14   8     0.02  -0.01  -0.07     0.02   0.01  -0.14     0.02  -0.01  -0.07
    15   1     0.01   0.01  -0.03     0.00   0.03  -0.12     0.01  -0.00  -0.06
    16   1     0.01  -0.01  -0.17     0.01   0.02  -0.19     0.01  -0.01  -0.13
    17   8    -0.00  -0.01  -0.03     0.02   0.07  -0.02    -0.02  -0.08   0.18
    18   1    -0.02   0.00  -0.04    -0.12   0.16  -0.10     0.16  -0.20   0.27
    19   1     0.01  -0.01  -0.04     0.17   0.12  -0.11    -0.21  -0.13   0.30
                      7                      8                      9
                      A                      A                      A
 Frequencies --     21.3350                53.0037                74.8214
 Red. masses --      5.2167                 5.4445                 5.1279
 Frc consts  --      0.0014                 0.0090                 0.0169
 IR Inten    --      7.2222                 8.7670                 1.9309
  Atom  AN      X      Y      Z        X      Y      Z        X      Y      Z
     1  80     0.01  -0.05  -0.02    -0.05  -0.02  -0.03     0.02   0.02  -0.02
     2   8     0.06   0.00   0.09     0.14   0.05   0.10    -0.22  -0.09  -0.01
     3   1     0.06   0.02   0.08     0.15   0.16   0.08    -0.24  -0.21   0.07
     4   1     0.07  -0.01   0.09     0.24   0.02   0.14    -0.35  -0.03  -0.01
     5   8     0.05   0.08   0.02     0.07   0.20   0.03    -0.20  -0.00   0.06
     6   1     0.09   0.04  -0.01     0.13   0.21  -0.01    -0.12  -0.06   0.00
     7   1     0.02   0.15  -0.01     0.02   0.27  -0.01    -0.28  -0.01  -0.01
     8   8    -0.28   0.05   0.04     0.34  -0.02   0.08    -0.02   0.07   0.01
     9   1    -0.34   0.03   0.08     0.43  -0.04   0.07     0.05   0.13  -0.06
    10   1    -0.31   0.15   0.06     0.39  -0.12   0.08    -0.06  -0.02  -0.05
    11   8    -0.03   0.09  -0.09    -0.04  -0.07   0.01     0.08  -0.23   0.01
    12   1     0.05   0.15  -0.01     0.01  -0.04   0.02     0.12  -0.22  -0.02
    13   1    -0.09   0.22  -0.15    -0.08  -0.10   0.03     0.09  -0.32   0.06
    14   8    -0.02  -0.01   0.04    -0.09   0.05   0.03    -0.06   0.11   0.11
    15   1    -0.08  -0.00   0.03    -0.02   0.05   0.05    -0.06   0.11   0.09
    16   1     0.01   0.03   0.06    -0.07   0.07   0.07    -0.07   0.10   0.14
    17   8     0.17   0.30   0.09     0.09   0.06   0.12     0.25  -0.03   0.09
    18   1     0.18   0.37   0.14     0.11   0.08   0.15     0.22   0.03   0.10
    19   1     0.16   0.33   0.11     0.08   0.11   0.17     0.28   0.05   0.12
                     10                     11                     12
                      A                      A                      A
 Frequencies --     98.9893               113.8627               118.0147
 Red. masses --      4.7846                 5.0538                 5.1845
 Frc consts  --      0.0276                 0.0386                 0.0425
 IR Inten    --      5.1644                 8.3744                 1.2289
  Atom  AN      X      Y      Z        X      Y      Z        X      Y      Z
     1  80    -0.01  -0.03   0.07     0.04  -0.03  -0.01    -0.03   0.04   0.00
     2   8    -0.06  -0.02  -0.17    -0.23  -0.15  -0.04    -0.06  -0.12  -0.11
     3   1    -0.04  -0.06  -0.28    -0.26  -0.38   0.04    -0.06  -0.29  -0.15
     4   1    -0.07   0.03  -0.05    -0.44  -0.09  -0.12    -0.18  -0.02   0.05
     5   8    -0.02   0.11  -0.06     0.03   0.26   0.05     0.26   0.15   0.07
     6   1    -0.22   0.38   0.11     0.06   0.19   0.01     0.22   0.40   0.13
     7   1     0.15  -0.17   0.11    -0.02   0.30   0.01     0.28  -0.06   0.11
     8   8     0.09   0.08  -0.09     0.05   0.05   0.01    -0.07  -0.21  -0.03
     9   1     0.09   0.06  -0.07     0.08   0.04   0.01    -0.05  -0.14  -0.10
    10   1     0.14   0.06  -0.06     0.06   0.03   0.01    -0.11  -0.28  -0.08
    11   8     0.02  -0.02  -0.22    -0.05   0.15   0.11     0.03  -0.09   0.01
    12   1     0.04  -0.04  -0.17    -0.06   0.16   0.14     0.03  -0.09  -0.02
    13   1     0.12   0.23  -0.38    -0.13   0.16   0.12     0.06  -0.14   0.03
    14   8    -0.01   0.08  -0.15    -0.02   0.05   0.02     0.04  -0.21   0.04
    15   1    -0.04   0.10  -0.14    -0.03   0.05   0.01     0.05  -0.21   0.06
    16   1    -0.01   0.11  -0.28     0.02   0.06   0.07     0.04  -0.22  -0.05
    17   8     0.11   0.06  -0.10    -0.19   0.03   0.01     0.11  -0.01  -0.00
    18   1     0.13   0.10  -0.05    -0.22  -0.00  -0.03     0.08   0.04   0.00
    19   1     0.08   0.04  -0.09    -0.16  -0.02  -0.05     0.14   0.03  -0.00
                     13                     14                     15
                      A                      A                      A
 Frequencies --    151.9054               221.3675               259.2609
 Red. masses --      1.7314                 5.1583                 2.8457
 Frc consts  --      0.0235                 0.1489                 0.1127
 IR Inten    --      6.2515                13.3927                 8.6788
  Atom  AN      X      Y      Z        X      Y      Z        X      Y      Z
     1  80     0.01  -0.01  -0.01     0.01  -0.03  -0.00    -0.02  -0.00   0.00
     2   8     0.05   0.03  -0.11    -0.23   0.42   0.02    -0.00  -0.08  -0.10
     3   1     0.08   0.12  -0.28    -0.23   0.16  -0.00     0.00  -0.08  -0.10
     4   1     0.13   0.15   0.37    -0.44   0.47  -0.09    -0.03   0.04   0.27
     5   8    -0.05  -0.01   0.02     0.17  -0.03   0.00     0.18  -0.14   0.12
     6   1    -0.05   0.42   0.10     0.14  -0.00   0.02     0.64  -0.23  -0.19
     7   1    -0.04  -0.44   0.06     0.19  -0.08   0.03    -0.24  -0.03  -0.24
     8   8    -0.01  -0.02  -0.04     0.01   0.01  -0.00     0.03   0.17  -0.05
     9   1     0.13   0.18  -0.25     0.04   0.06  -0.06     0.01   0.09   0.02
    10   1    -0.09  -0.28  -0.18    -0.02  -0.05  -0.04     0.05   0.26  -0.01
    11   8    -0.01   0.03   0.04    -0.03  -0.10   0.02    -0.02   0.00  -0.00
    12   1    -0.01   0.04   0.02     0.01  -0.13   0.10    -0.03   0.03  -0.03
    13   1    -0.04  -0.05   0.09    -0.03   0.17  -0.14    -0.01  -0.06   0.03
    14   8    -0.03   0.03   0.14     0.04  -0.01   0.03     0.00   0.07   0.01
    15   1    -0.06   0.06   0.18     0.03  -0.02   0.06     0.04   0.03  -0.07
    16   1    -0.03   0.06  -0.03     0.05   0.01  -0.00     0.02   0.06   0.27
    17   8    -0.03   0.03   0.01    -0.01  -0.00   0.00     0.00   0.00   0.01
    18   1    -0.03   0.02   0.01    -0.15   0.14  -0.04     0.05  -0.03   0.04
    19   1    -0.03   0.02   0.01     0.13  -0.01  -0.12    -0.04   0.02   0.06
                     16                     17                     18
                      A                      A                      A
 Frequencies --    277.8200               302.0194               365.6763
 Red. masses --      1.8496                 1.2121                 2.1093
 Frc consts  --      0.0841                 0.0651                 0.1662
 IR Inten    --     15.5993                88.2590                33.7761
  Atom  AN      X      Y      Z        X      Y      Z        X      Y      Z
     1  80    -0.01   0.00  -0.00     0.00   0.01  -0.00     0.01   0.01   0.00
     2   8    -0.01  -0.07   0.08     0.05  -0.04  -0.00    -0.01  -0.03   0.01
     3   1    -0.02  -0.09   0.12     0.04  -0.12  -0.00    -0.00   0.02  -0.01
     4   1    -0.01  -0.19  -0.28    -0.05   0.02   0.07     0.05  -0.10  -0.12
     5   8     0.11  -0.06  -0.10    -0.01  -0.01   0.01     0.05  -0.03  -0.06
     6   1    -0.27  -0.00   0.15    -0.00  -0.01   0.00    -0.14   0.12   0.09
     7   1     0.44  -0.15   0.20    -0.02  -0.01   0.00     0.23  -0.15   0.10
     8   8     0.01   0.11   0.03     0.00   0.01  -0.00     0.01  -0.06  -0.07
     9   1     0.17   0.39  -0.25     0.02   0.02  -0.01    -0.16  -0.45   0.32
    10   1    -0.05  -0.28  -0.14     0.00  -0.01  -0.01     0.08   0.45   0.16
    11   8    -0.01  -0.00  -0.00    -0.01  -0.07  -0.00    -0.04  -0.11  -0.06
    12   1    -0.02   0.01  -0.01    -0.00  -0.19   0.29     0.02  -0.13  -0.14
    13   1    -0.01  -0.03   0.02    -0.03   0.51  -0.34    -0.03  -0.22   0.00
    14   8     0.01   0.02   0.06     0.00   0.00   0.01    -0.02   0.09   0.12
    15   1    -0.04   0.08   0.24     0.01  -0.00   0.01    -0.00   0.02  -0.22
    16   1     0.02   0.07  -0.18    -0.01  -0.01   0.01    -0.05   0.08  -0.02
    17   8     0.00   0.00  -0.02    -0.04   0.00   0.05    -0.10   0.08   0.03
    18   1     0.00   0.00  -0.01    -0.39   0.35  -0.07    -0.05   0.02   0.04
    19   1     0.00   0.01  -0.01     0.32  -0.06  -0.29    -0.18   0.10   0.11
                     19                     20                     21
                      A                      A                      A
 Frequencies --    372.1337               391.6015               451.9627
 Red. masses --      2.4402                 4.4442                 1.3417
 Frc consts  --      0.1991                 0.4015                 0.1615
 IR Inten    --    130.7483               112.3024                63.9941
  Atom  AN      X      Y      Z        X      Y      Z        X      Y      Z
     1  80    -0.02  -0.01  -0.01     0.00   0.00   0.00    -0.00  -0.00   0.00
     2   8     0.01   0.01   0.01    -0.05  -0.02   0.01    -0.08  -0.01   0.01
     3   1     0.00  -0.09  -0.02    -0.04   0.14   0.01    -0.04   0.49  -0.06
     4   1    -0.07   0.02  -0.07     0.09  -0.09  -0.03     0.44  -0.24  -0.02
     5   8     0.00  -0.00  -0.04     0.12  -0.08  -0.01     0.00   0.02   0.01
     6   1    -0.16   0.14   0.09     0.12  -0.09  -0.01     0.03  -0.01  -0.01
     7   1     0.15  -0.11   0.09     0.13  -0.09   0.00    -0.03  -0.04  -0.02
     8   8     0.02   0.04  -0.08    -0.05  -0.23   0.07     0.01   0.02  -0.01
     9   1    -0.09  -0.33   0.27    -0.01  -0.17   0.01    -0.01   0.02  -0.00
    10   1     0.12   0.49   0.14    -0.05  -0.38   0.02    -0.01   0.04  -0.01
    11   8     0.05   0.14   0.08     0.06   0.10   0.03     0.04   0.05  -0.07
    12   1    -0.05   0.17   0.21     0.02   0.06   0.16    -0.01  -0.15   0.07
    13   1     0.01   0.29   0.00     0.02   0.19  -0.01    -0.03  -0.35   0.19
    14   8     0.00  -0.01   0.13    -0.20   0.27  -0.10     0.03  -0.03   0.01
    15   1     0.01  -0.12  -0.15    -0.22   0.37  -0.09     0.02  -0.03   0.00
    16   1    -0.03  -0.04  -0.01    -0.16   0.36   0.01     0.06   0.00   0.02
    17   8     0.14  -0.11  -0.04     0.07  -0.06  -0.01    -0.01  -0.03   0.05
    18   1     0.05  -0.02  -0.06    -0.06   0.05  -0.06    -0.27   0.29  -0.00
    19   1     0.26  -0.14  -0.16     0.21  -0.11  -0.16     0.27  -0.05  -0.20
                     22                     23                     24
                      A                      A                      A
 Frequencies --    491.2123               580.5708               616.4812
 Red. masses --      1.2754                 4.3875                 1.3385
 Frc consts  --      0.1813                 0.8713                 0.2997
 IR Inten    --    115.1349               180.2109               306.2377
  Atom  AN      X      Y      Z        X      Y      Z        X      Y      Z
     1  80     0.00   0.00  -0.00    -0.01  -0.00  -0.00     0.01   0.00   0.00
     2   8    -0.06  -0.03   0.00     0.02  -0.02  -0.02     0.00  -0.00  -0.00
     3   1    -0.03   0.49  -0.08    -0.01  -0.04   0.20    -0.01   0.04   0.04
     4   1     0.45  -0.25   0.00    -0.11   0.07   0.12     0.02   0.01   0.04
     5   8     0.01   0.02   0.01    -0.02   0.03   0.00     0.00   0.02   0.00
     6   1     0.02  -0.04  -0.01    -0.05  -0.12  -0.01    -0.03  -0.17  -0.01
     7   1    -0.03  -0.07  -0.02    -0.03   0.02   0.00    -0.02  -0.13  -0.01
     8   8     0.00  -0.00   0.00     0.02  -0.11   0.04    -0.08   0.05  -0.02
     9   1    -0.01   0.00   0.01    -0.28   0.16  -0.09     0.52  -0.37   0.15
    10   1    -0.01   0.02   0.00    -0.28   0.04  -0.09     0.49  -0.37   0.19
    11   8    -0.03  -0.06   0.07    -0.27   0.02  -0.03    -0.09  -0.00  -0.01
    12   1     0.02   0.10   0.01    -0.33   0.05   0.01    -0.12   0.01  -0.01
    13   1     0.07   0.49  -0.28    -0.24  -0.14   0.07    -0.07  -0.04   0.01
    14   8     0.03  -0.00   0.01     0.29   0.17   0.02    -0.01  -0.02  -0.00
    15   1     0.02   0.00   0.01     0.26   0.19  -0.01    -0.12  -0.00  -0.03
    16   1     0.06   0.03   0.02     0.23   0.12  -0.04     0.02   0.02  -0.01
    17   8     0.02   0.02  -0.04     0.08  -0.10  -0.03     0.02  -0.04  -0.02
    18   1     0.18  -0.24  -0.03     0.05   0.21   0.11     0.03   0.13   0.09
    19   1    -0.17  -0.00   0.10     0.22   0.10   0.01     0.06   0.11   0.06
                     25                     26                     27
                      A                      A                      A
 Frequencies --    637.5009               671.0836               677.7859
 Red. masses --      2.3840                 1.2284                 1.3484
 Frc consts  --      0.5708                 0.3259                 0.3650
 IR Inten    --    191.7794               447.6663               180.3524
  Atom  AN      X      Y      Z        X      Y      Z        X      Y      Z
     1  80    -0.03  -0.01  -0.00     0.01   0.00   0.00    -0.01  -0.00  -0.00
     2   8     0.02  -0.01  -0.04     0.00  -0.01  -0.06     0.00   0.00   0.02
     3   1    -0.06   0.05   0.42    -0.10   0.25   0.67     0.03  -0.08  -0.20
     4   1    -0.13   0.13   0.23    -0.05   0.14   0.37     0.01  -0.04  -0.11
     5   8    -0.00   0.05  -0.01     0.02   0.02  -0.02    -0.01   0.00   0.01
     6   1    -0.12  -0.34  -0.00    -0.15  -0.27   0.03     0.03   0.04  -0.01
     7   1    -0.00  -0.17   0.01     0.09  -0.11   0.05    -0.04  -0.00  -0.02
     8   8    -0.04  -0.01   0.00     0.03   0.00  -0.00    -0.01  -0.01   0.00
     9   1     0.23  -0.19   0.07    -0.15   0.08  -0.02     0.01  -0.01  -0.00
    10   1     0.21  -0.22   0.09    -0.12   0.16  -0.04     0.01  -0.04   0.01
    11   8     0.18   0.00   0.01    -0.01   0.00   0.01     0.10   0.01   0.03
    12   1     0.22  -0.01   0.01    -0.05  -0.03  -0.02    -0.01  -0.10  -0.05
    13   1     0.15   0.02   0.00     0.04   0.03  -0.02     0.19   0.12  -0.06
    14   8     0.17   0.08   0.02    -0.07  -0.04  -0.00     0.04   0.03   0.00
    15   1     0.06   0.10  -0.02    -0.06  -0.04   0.02     0.04   0.02  -0.01
    16   1     0.17   0.10  -0.06    -0.02   0.02  -0.05     0.03   0.01   0.02
    17   8    -0.04   0.07   0.04    -0.01  -0.03  -0.02    -0.05  -0.05  -0.05
    18   1    -0.07  -0.24  -0.17     0.04   0.17   0.14     0.09   0.48   0.38
    19   1    -0.11  -0.21  -0.12     0.02   0.19   0.12    -0.01   0.56   0.37
                     28                     29                     30
                      A                      A                      A
 Frequencies --    709.0558               973.9261              1077.3712
 Red. masses --      1.1427                 1.0568                 1.0516
 Frc consts  --      0.3385                 0.5906                 0.7192
 IR Inten    --    470.8237                43.7012               157.2069
  Atom  AN      X      Y      Z        X      Y      Z        X      Y      Z
     1  80    -0.00  -0.00  -0.00     0.00  -0.00  -0.00    -0.00  -0.00   0.00
     2   8    -0.01  -0.01  -0.03     0.00   0.00   0.00     0.00  -0.00  -0.00
     3   1    -0.05   0.15   0.30     0.00  -0.02  -0.01    -0.01   0.03   0.07
     4   1     0.03   0.03   0.15    -0.01   0.00  -0.02    -0.01   0.01   0.02
     5   8    -0.02  -0.08  -0.01    -0.00   0.00  -0.00     0.00   0.00  -0.04
     6   1     0.09   0.57   0.03    -0.00   0.00  -0.00    -0.12   0.14   0.07
     7   1     0.13   0.67   0.06    -0.00  -0.00   0.00     0.12  -0.13   0.07
     8   8    -0.02   0.01  -0.00     0.00  -0.00   0.00    -0.01   0.01   0.01
     9   1     0.11  -0.07   0.03    -0.00  -0.00   0.00     0.04   0.05  -0.04
    10   1     0.10  -0.10   0.04    -0.00   0.00  -0.00     0.02  -0.09  -0.00
    11   8     0.01  -0.00   0.00    -0.03   0.02   0.02     0.00  -0.00   0.00
    12   1    -0.00  -0.01  -0.00    -0.40  -0.09  -0.25     0.00   0.00   0.00
    13   1     0.03   0.02  -0.01     0.85  -0.07  -0.09    -0.00  -0.00   0.00
    14   8     0.03   0.01   0.00    -0.00  -0.00   0.00    -0.00   0.02  -0.03
    15   1     0.01   0.02  -0.01    -0.02  -0.00   0.00     0.31  -0.12  -0.20
    16   1    -0.04  -0.05  -0.07     0.01   0.02   0.01    -0.06  -0.18   0.85
    17   8    -0.00  -0.00  -0.00     0.00   0.02   0.03    -0.00   0.00   0.00
    18   1     0.00   0.02   0.01    -0.07  -0.00  -0.04     0.00  -0.00   0.00
    19   1    -0.00   0.02   0.01     0.04  -0.09  -0.09    -0.00  -0.00  -0.00
                     31                     32                     33
                      A                      A                      A
 Frequencies --   1212.8184              1330.5311              1415.7444
 Red. masses --      1.0522                 1.0539                 1.0708
 Frc consts  --      0.9119                 1.0993                 1.2646
 IR Inten    --    109.1282               209.1140               385.1750
  Atom  AN      X      Y      Z        X      Y      Z        X      Y      Z
     1  80    -0.00   0.00   0.00    -0.00  -0.00   0.00    -0.00   0.00   0.00
     2   8     0.00  -0.00   0.00     0.00  -0.00  -0.00    -0.00   0.00   0.00
     3   1     0.01  -0.02  -0.01     0.00   0.01   0.00    -0.00   0.00  -0.00
     4   1    -0.05   0.02  -0.01    -0.01   0.00  -0.00     0.00  -0.00  -0.00
     5   8    -0.01  -0.01  -0.01    -0.00   0.00  -0.00    -0.00  -0.00   0.00
     6   1    -0.00   0.11   0.01    -0.01   0.03   0.01    -0.00   0.00   0.00
     7   1     0.05   0.02   0.03     0.01  -0.01   0.01    -0.00   0.00  -0.00
     8   8     0.01  -0.01  -0.01    -0.01  -0.01  -0.04    -0.00  -0.00  -0.00
     9   1    -0.04  -0.03   0.03     0.02  -0.16   0.09    -0.00   0.00  -0.00
    10   1    -0.03   0.05  -0.00     0.04   0.18   0.05    -0.00   0.00   0.00
    11   8    -0.00  -0.00  -0.00    -0.00   0.00   0.00     0.01  -0.05  -0.00
    12   1     0.01  -0.01   0.01     0.01  -0.00  -0.00     0.18   0.88  -0.29
    13   1    -0.03  -0.00   0.00     0.00  -0.00   0.00     0.07  -0.02  -0.04
    14   8     0.01  -0.04  -0.02    -0.01   0.00  -0.04    -0.00   0.00  -0.00
    15   1    -0.52   0.05   0.08     0.31   0.19   0.88    -0.00  -0.02   0.00
    16   1     0.53   0.53   0.35    -0.00   0.02   0.13     0.01   0.01  -0.00
    17   8     0.00   0.00  -0.00     0.00  -0.00   0.00    -0.03  -0.02   0.03
    18   1     0.00  -0.00  -0.00    -0.00   0.00   0.00    -0.04   0.14   0.09
    19   1    -0.00   0.00   0.00    -0.00  -0.00   0.00     0.22  -0.00  -0.14
                     34                     35                     36
                      A                      A                      A
 Frequencies --   1515.9438              1711.0017              1724.8701
 Red. masses --      1.1185                 1.0820                 1.0865
 Frc consts  --      1.5145                 1.8663                 1.9045
 IR Inten    --   2854.5404                94.3624               208.8730
[...]
 57483,-0.00180385,-0.41274756,-0.03632642,-0.14834723,-0.02654924,0.00
 512289,-0.02193972,0.43857303,0.00057282,0.00193192,-0.00177845,0.0030
 5105,-0.02473565,0.02412846,-0.03291602,0.00303346,-0.01048130,0.03140
 275,0.02166859,-0.00419734,0.00016076,0.00021553,-0.19564416,0.0050802
 9,-0.11896495,0.02754732,0.00677446,0.01127007,0.17106639,-0.01307157,
 0.10851538,-0.00300989,0.00041729,-0.00420637,-0.00518447,-0.00566295,
 0.00178573,0.00284390,0.00636191,0.00058220,0.00031303,-0.00072909,0.0
 0119312,0.31597905,0.00123061,-0.00006485,-0.00255864,-0.00639156,0.00
 065125,0.00102576,0.00611183,-0.00484283,-0.00054796,-0.00035771,-0.00
 107987,0.00089128,-0.16162464,0.58050461,-0.00744175,-0.00482098,-0.00
 334951,0.00054912,0.00082527,0.00478925,0.00495141,0.00187981,-0.00604
 333,0.00058733,0.00012177,0.00005050,-0.21573233,-0.02164712,0.2759730
 2,0.00115021,-0.00032171,0.00057131,-0.00179374,0.00099211,-0.00031757
 ,0.00163816,-0.00318220,0.00052759,-0.00036136,-0.00065274,0.00006914,
 -0.03751719,0.01639788,0.01669725,0.03854863,-0.00023861,-0.00020535,0
 .00051493,0.00035758,0.00073046,-0.00077176,-0.00093321,-0.00174537,0.
 00088351,-0.00017234,-0.00010046,0.00008872,0.06349279,-0.45550912,0.0
 7850697,-0.05778850,0.47881951,0.00034754,0.00065869,0.00048375,0.0000
 5601,-0.00027939,-0.00066854,-0.00042016,-0.00029479,0.00098709,-0.000
 13934,0.00001120,0.00017464,0.00244723,0.11666785,-0.05976165,-0.01251
 959,-0.09224463,0.05158467,0.00031685,0.00006414,0.00081975,0.00047863
 ,-0.00047445,-0.00139234,-0.00266602,0.00067122,0.00246238,-0.00024289
 ,-0.00007507,0.00009920,-0.26577053,0.14217536,0.19451523,-0.00255331,
 -0.00455353,0.01096726,0.26916881,0.00012354,0.00087069,0.00055731,-0.
 00004236,-0.00173449,-0.00060840,-0.00111757,0.00245124,0.00115874,-0.
 00014597,0.00007664,0.00005623,0.09633641,-0.10538032,-0.06077439,0.04
 395321,-0.02147168,-0.03213839,-0.13741682,0.12300021,0.00095348,0.000
 14345,0.00007083,-0.00040371,-0.00049152,-0.00039647,-0.00001947,0.000
 26890,0.00089602,-0.00015761,0.00010912,0.00011698,0.20387401,-0.10221
 915,-0.18283330,-0.00330845,0.01260924,0.00802699,-0.20603929,0.091963
 32,0.17746172,0.00484411,0.00473840,-0.00032802,-0.00091197,-0.0005937
 6,-0.00153561,0.00000565,0.00013744,0.00063747,0.00018750,0.00018357,-
 0.00009739,0.00107584,0.00065323,-0.00270179,-0.00023407,-0.00015141,-
 0.00002060,-0.00043521,0.00019462,-0.00037377,0.50450907,0.00111072,-0
 .00132461,0.00115868,0.00020100,0.00028631,0.00006782,-0.00010206,-0.0
 0019302,-0.00006475,-0.00002476,-0.00007653,0.00004540,0.00041317,0.00
 047901,0.00042523,-0.00026372,-0.00008185,-0.00035888,-0.00008293,-0.0
 0032876,-0.00014950,-0.09702133,0.46881845,0.00385532,0.00437076,-0.00
 331355,-0.00114880,-0.00068781,-0.00088204,0.00043437,0.00020562,0.000
 53563,0.00024537,0.00015732,-0.00014462,-0.00062494,0.00030951,-0.0021
 3912,0.00034278,-0.00025064,0.00029923,0.00018990,0.00014571,0.0005847
 3,-0.01221697,0.28156173,0.24503199,0.00015645,-0.00023402,-0.00077696
 ,-0.00004836,0.00000499,0.00012929,0.00006197,-0.00001499,-0.00001344,
 0.00000958,-0.00002997,-0.00002637,-0.00009504,0.00007008,0.00001609,0
 .00006550,-0.00003063,-0.00007857,0.00007042,-0.00001815,0.00004070,-0
 .07826411,-0.09657386,-0.07455253,0.07124188,-0.00039352,-0.00002298,-
 0.00031373,0.00005355,-0.00005217,0.00015924,0.00002327,0.00006243,-0.
 00002958,-0.00001090,0.00001900,0.00001036,-0.00008175,-0.00024674,0.0
 0008494,0.00006350,0.00008843,0.00013996,-0.00000487,0.00010006,0.0000
 0130,-0.04843182,-0.33060278,-0.21154143,0.06252672,0.34494294,-0.0006
 5713,-0.00030114,0.00056121,0.00023426,0.00013334,0.00004053,-0.000170
 94,-0.00008125,-0.00005629,-0.00005044,-0.00003442,0.00002527,0.000515
 16,0.00020020,0.00038190,-0.00025865,0.00001427,-0.00025623,-0.0001605
 6,-0.00011157,-0.00027652,-0.03954271,-0.20396630,-0.15306280,0.049647
 02,0.22573285,0.15686778,-0.00069478,0.00016034,-0.00015611,0.00009183
 ,0.00001705,0.00015609,-0.00002771,0.00001519,-0.00004855,-0.00001919,
 -0.00001917,-0.00001084,0.00017781,-0.00006663,0.00011334,-0.00002976,
 0.00002847,-0.00005507,-0.00000481,0.00004060,-0.00016767,-0.38259462,
 0.19077310,0.10344315,0.00497263,-0.01375674,-0.00771201,0.38155743,0.
 00013789,0.00098601,-0.00014491,-0.00010745,-0.00020303,-0.00009581,0.
 00007912,0.00013900,0.00006476,0.00001503,0.00005660,-0.00000973,-0.00
 030930,-0.00025675,-0.00042253,0.00017592,0.00002077,0.00018762,0.0000
 9222,0.00022877,0.00015857,0.13601677,-0.11970757,-0.06796476,0.042161
 43,-0.01675292,-0.01520109,-0.17967849,0.13410030,-0.00025042,0.000006
 83,0.00049285,0.00014190,0.00001795,-0.00022299,-0.00022215,-0.0000185
 2,0.00002991,-0.00003232,-0.00000384,0.00000522,0.00077395,-0.00004097
 ,-0.00002290,-0.00023894,0.00009643,-0.00008980,-0.00033665,0.00008816
 ,-0.00048115,0.07779682,-0.07024629,-0.06076361,0.02810911,-0.01535900
 ,-0.00164783,-0.09965412,0.08160654,0.05802165,-0.09633283,-0.05833419
 ,0.02363468,0.00163540,-0.00083148,0.00421926,0.00043570,0.00016960,0.
 00030899,-0.00104699,-0.00068604,0.00129221,0.00000899,-0.00031997,0.0
 0121846,-0.00012133,0.00017082,-0.00012558,0.00005944,-0.00002258,-0.0
 0017248,-0.00091287,-0.00020496,-0.00069642,0.00001476,0.00012790,0.00
 019395,0.00019273,-0.00000291,0.00003544,0.14684283,-0.07785179,-0.074
 29037,0.01615034,-0.00010765,0.00031833,0.00386258,0.00053647,0.000180
 15,0.00018973,-0.00028162,-0.00079769,0.00007625,-0.00021499,-0.000237
 87,0.00085421,0.00004832,0.00011952,-0.00009008,0.00009352,-0.00009456
 ,-0.00010143,-0.00087264,0.00017140,-0.00085901,0.00005440,0.00002750,
 0.00013820,0.00006810,-0.00019827,0.00007775,0.10812541,0.49303047,0.0
 3353896,0.01453549,-0.03155753,0.00198111,0.00343286,-0.00563907,-0.00
 188221,-0.00079931,-0.00098827,0.00023314,-0.00057690,0.00069492,0.001
 12795,0.00077206,0.00031733,-0.00018131,-0.00024494,-0.00005722,-0.000
 31030,-0.00016449,0.00002642,0.00081753,-0.00017642,0.00121527,0.00010
 420,0.00000237,-0.00034083,-0.00010280,0.00008013,-0.00017993,-0.07906
 088,0.16295732,0.36901784,-0.00811396,-0.00734876,0.01025146,0.0001884
 5,0.00035407,-0.00124338,-0.00019957,-0.00010353,0.00007453,0.00015276
 ,-0.00016658,0.00026889,0.00015232,0.00027092,-0.00052782,0.00001162,-
 0.00011445,0.00005888,-0.00007119,-0.00002795,0.00008507,0.00058290,0.
 00011959,0.00042949,-0.00003514,-0.00009434,-0.00009953,-0.00011135,-0
 .00001761,-0.00001064,-0.03952497,-0.00681875,0.01023392,0.07067587,-0
 .00352141,-0.00070848,0.00703983,-0.00008896,-0.00022692,0.00031217,0.
 00005970,0.00007071,0.00017222,-0.00006958,0.00003918,0.00012940,0.000
 01278,0.00001223,-0.00017640,-0.00001578,-0.00000505,0.00003638,-0.000
 01557,0.00001828,0.00002682,0.00016546,-0.00008261,0.00008998,-0.00006
 752,0.00001336,-0.00000364,-0.00001409,0.00005948,-0.00002086,-0.01639
 118,-0.06449934,0.02249663,0.00261496,0.09061366,0.00936407,0.01443309
 ,-0.00026732,-0.00094248,-0.00168521,0.00424668,0.00102579,0.00039917,
 0.00011606,-0.00026428,0.00024285,-0.00074095,-0.00067300,-0.00080399,
 0.00115235,0.00007580,0.00032702,-0.00010887,0.00027704,0.00009528,-0.
 00018518,-0.00169219,0.00011774,-0.00205627,-0.00006827,0.00007036,0.0
 0053449,0.00023110,-0.00011973,0.00024046,0.01230866,-0.01697984,-0.09
 803682,-0.00547942,0.00308746,0.07882331,-0.00459548,-0.01707428,-0.00
 495160,-0.00055714,0.00040193,-0.00016816,-0.00003180,-0.00005027,-0.0
 0003020,0.00041622,0.00017157,-0.00033903,-0.00000784,0.00008102,0.000
 02166,0.00002776,-0.00001660,0.00001089,0.00000550,-0.00006232,0.00002
 837,-0.00000472,0.00013969,-0.00002478,0.00001521,-0.00003589,-0.00000
 666,-0.00004179,-0.00009181,0.00000650,-0.02121362,-0.02222768,0.00903
 433,0.00600867,0.00872826,-0.00325831,0.02145156,-0.00103584,-0.008202
 55,-0.00378269,0.00074216,0.00043446,-0.00077144,-0.00033225,0.0000088
 4,0.00001840,-0.00009664,-0.00018799,0.00061578,0.00020747,0.00013473,
 -0.00020066,-0.00003552,-0.00005167,0.00003125,-0.00005890,0.00002325,
 0.00003736,0.00032091,-0.00005137,0.00025458,-0.00003278,-0.00001048,-
 0.00005010,-0.00004112,0.00005515,-0.00001695,-0.03071524,-0.37247297,
 -0.20594911,0.00232782,0.00392893,0.00241711,0.03068468,0.37589734,0.0
 0388061,0.00639320,0.00732005,-0.00129738,-0.00167570,-0.00101379,0.00
 039454,0.00018705,0.00013988,0.00016665,0.00116372,-0.00061752,-0.0003
 0399,-0.00013598,-0.00056349,0.00006141,0.00002184,0.00009052,0.000081
 57,0.00008746,0.00007541,0.00025516,0.00006547,0.00005782,-0.00004545,
 -0.00005155,0.00001066,-0.00004846,-0.00000064,0.00005592,0.00253056,-
 0.17907203,-0.15598719,-0.00345391,-0.03439377,-0.00210593,-0.00553863
 ,0.20351531,0.16040316,-0.10439739,-0.07972377,0.02343371,-0.00395750,
 -0.00154931,-0.00821425,-0.00209818,-0.00031856,0.00115134,0.00100983,
 0.00040418,-0.00136215,0.01015857,-0.00159337,0.00450622,-0.00136287,0
 .00081283,0.00053554,-0.00035179,0.00009919,-0.00237996,-0.03810602,0.
 00171623,-0.03835545,-0.00519582,0.00440139,-0.00009568,-0.00001176,-0
 .00313249,-0.00438874,0.00565784,0.00133579,-0.00231219,0.00177124,0.0
 0050224,-0.00365148,-0.00020413,0.00060723,0.00088845,0.36671765,-0.06
 738929,-0.07668707,0.02392386,-0.00230931,0.00157278,-0.00337538,-0.00
 115881,-0.00163322,-0.00039322,0.00040388,0.00006657,-0.00091875,-0.00
 097115,0.00642205,0.01358562,-0.00030625,0.00036781,-0.00233298,0.0009
 1958,-0.00214071,0.00171408,0.00008871,0.01244628,0.00077901,0.0026697
 9,-0.00146645,0.00198125,-0.00063390,-0.00063559,-0.00099809,0.0004960
 7,0.00481797,-0.00174013,0.00081152,0.00063300,-0.00262143,0.00059050,
 0.00103362,0.00022719,0.08502663,0.13342999,0.01477374,0.02124742,-0.0
 3322329,-0.00445048,-0.00258440,-0.00045412,0.00312743,0.00166224,0.00
 111360,0.00080492,0.00026386,-0.00076909,0.00314624,0.01016229,-0.0368
 2196,0.00127373,-0.00287129,-0.00374334,-0.00277659,0.00351943,-0.0022
 7449,-0.03779950,0.00271128,-0.01409830,-0.00206791,0.00198490,-0.0005
 6858,-0.00266176,-0.00226508,-0.00611439,0.00379838,0.00345168,0.00711
 405,-0.00109178,-0.00065982,0.00025988,0.00141450,0.00004057,-0.001251
 11,0.04169215,-0.10749323,0.48427358,-0.01495659,-0.00816651,-0.000430
 56,0.00183397,0.00110243,0.00269373,-0.00030441,-0.00032625,-0.0013371
 8,-0.00032151,-0.00035359,0.00017416,-0.00218727,-0.00179351,0.0071147
 6,0.00037576,0.00024523,0.00011359,0.00076646,-0.00036507,0.00086154,-
 0.00282929,-0.00021026,0.02052093,0.00730326,-0.00436204,-0.00136914,-
 0.00252850,0.00457111,-0.00025446,0.00270361,0.00189418,-0.00217706,-0
 .00111629,-0.00028425,0.00386211,-0.00001214,-0.00072017,-0.00035571,-
 0.15523986,0.00284120,-0.07093347,0.14690407,-0.01250586,-0.00183156,-
 0.00430728,-0.00078532,-0.00023060,-0.00101806,-0.00025566,0.00001427,
 0.00002148,0.00006899,0.00006621,-0.00031166,-0.00043701,-0.00054500,0
 .00092871,0.00024149,0.00016630,0.00046329,0.00005583,0.00028998,0.000
 03438,0.00654013,-0.02930642,-0.00533187,-0.01043792,0.00338476,-0.008
 03295,0.00284004,0.00182569,0.00465755,0.00087987,0.00025420,0.0004227
 5,-0.00004549,-0.00002140,-0.00010585,-0.00007457,0.00001870,-0.000026
 04,0.00678815,-0.03884407,0.02341788,0.00080312,0.06260553,-0.00158890
 ,-0.00579097,0.00710601,0.00185511,0.00119075,0.00249597,-0.00017715,-
 0.00010091,-0.00102081,-0.00038773,-0.00028687,0.00026975,0.00088651,-
 0.00063013,0.00088191,0.00007529,0.00042757,-0.00030761,0.00007531,0.0
 0014897,-0.00093603,0.01286234,-0.01134304,-0.01502006,-0.00022325,-0.
 00068437,-0.00183371,0.00707398,0.00389580,0.01065524,0.00128409,0.001
 71796,-0.00190598,-0.00082687,-0.00016028,0.00336994,0.00003307,-0.000
 41531,-0.00028825,-0.04096717,0.01596383,-0.10172417,0.04284751,-0.008
 80256,0.11035720,-0.00440666,-0.00695450,0.01471756,0.00105294,0.00182
 862,0.00050530,-0.00088754,-0.00128421,-0.00332685,-0.00026468,-0.0002
 0037,0.00006335,-0.01685074,0.00524884,-0.00401226,0.00214674,-0.00114
 582,-0.00117123,0.00119195,-0.00153551,0.00719608,-0.00668523,-0.00002
 871,-0.00158686,-0.00027824,-0.00002581,-0.00053203,-0.00095109,0.0001
 2479,-0.00151713,-0.00016717,-0.00072884,-0.00137889,-0.00003140,0.000
 05134,0.00017622,-0.00034618,-0.00016336,0.00026447,-0.07385842,-0.020
 88035,0.05169729,0.01911281,0.00636202,-0.02323041,0.08119551,-0.00995
 029,-0.00632349,0.01083841,0.00152183,-0.00071157,0.00089149,-0.000396
 51,0.00188307,-0.00130306,-0.00009162,0.00000358,0.00036360,0.00278038
 ,-0.02002776,-0.00919107,0.00070179,-0.00114869,0.00954249,-0.00138992
 ,0.00408492,-0.00410186,-0.00194848,-0.00045470,-0.00120463,-0.0000524
 2,0.00051508,-0.00042709,0.00027200,0.00028257,0.00014409,-0.00018185,
 0.00017906,-0.00103220,-0.00021116,-0.00008063,0.00068667,-0.00025648,
 -0.00013996,0.00005520,-0.01529201,-0.03931253,0.04733622,0.00506482,0
 .00216289,0.00482617,0.01934543,0.05906293,0.01056181,0.00355568,0.008
 85358,0.00168723,0.00174795,-0.00490362,-0.00673122,-0.00323476,-0.000
 57509,-0.00016239,0.00013883,-0.00039476,0.00494504,-0.00176128,0.0084
 4125,-0.00285292,0.00302223,0.00330542,0.00163241,-0.00399431,0.000049
 13,0.00328143,0.00022125,0.00292521,-0.00023381,-0.00018456,-0.0001709
 8,-0.00031977,0.00017127,0.00011602,-0.00303966,-0.00192837,-0.0001323
 1,0.00110178,0.00032423,-0.00258061,-0.00009415,0.00038589,0.00094786,
 0.02810926,0.06077528,-0.29177613,0.00021987,-0.00207223,-0.01071061,-
 0.03778872,-0.05711941,0.28557496,0.00187766,0.00249084,-0.00236685,0.
 00004859,-0.00016845,0.00079128,0.00008191,0.00003944,-0.00001924,-0.0
 0013959,-0.00000180,-0.00004340,-0.00001426,-0.00013427,0.00032726,-0.
 00003145,0.00005737,-0.00004504,0.00002012,0.00001744,-0.00006687,-0.0
 0031016,-0.00016660,0.00002813,0.00007989,0.00010884,-0.00003857,0.000
 09109,0.00005197,-0.00005764,0.00390206,-0.00501615,0.02858193,-0.0340
 0021,0.01436974,-0.00701971,-0.00164536,-0.00133236,0.00146991,-0.0004
 9507,-0.00031065,0.00044846,0.00044101,0.00004243,0.00020757,-0.000011
 12,0.00016206,-0.00065669,0.53795230,0.00047723,-0.00115010,-0.0013280
 5,0.00004701,0.00023216,0.00009222,-0.00000773,-0.00007246,-0.00007540
 ,0.00000461,-0.00014612,-0.00003623,-0.00000099,0.00004706,0.00011939,
 0.00001716,-0.00001637,-0.00004596,0.00000400,-0.00003469,-0.00002462,
 -0.00013487,0.00008891,0.00008080,0.00011855,-0.00001423,-0.00006723,0
 .00001545,-0.00006836,-0.00001390,-0.00335792,0.01462545,0.00682676,0.
 01089463,-0.03465988,0.00355902,-0.00149533,-0.00068874,0.00438019,-0.
 00017014,0.00010367,0.00024904,0.00012577,-0.00008274,-0.00004044,0.00
 001490,0.00000287,-0.00018310,-0.20519463,0.41057060,-0.00710101,-0.00
 809824,0.00080776,0.00066233,0.00091692,-0.00214783,-0.00060051,-0.000
 24785,-0.00006859,0.00009334,-0.00017503,0.00045467,0.00039093,0.00042
 368,-0.00054364,-0.00005713,-0.00017526,0.00004096,-0.00015575,-0.0000
 5648,0.00008223,0.00088337,-0.00007215,0.00117338,0.00006510,-0.000023
 31,-0.00033067,-0.00011201,0.00005914,-0.00015452,0.03139665,0.0108746
 3,-0.07230408,-0.01869472,-0.00683583,0.00611704,0.00272635,0.00325645
 ,-0.00471861,0.00192483,0.00121730,0.00002943,-0.00207857,0.00004786,-
 0.00187394,-0.00009773,-0.00036792,0.00128207,-0.06684758,-0.21086600,
 0.30023116,-0.00038014,-0.00035434,0.00066620,-0.00006033,0.00003530,-
 0.00027327,-0.00001316,-0.00000674,0.00001654,0.00006423,0.00001613,0.
 00000905,-0.00000366,0.00004347,-0.00013695,0.00001331,-0.00001846,0.0
 0002474,-0.00000400,-0.00000483,0.00002866,0.00011407,0.00003915,-0.00
 001997,-0.00004245,-0.00003339,0.00002533,-0.00003196,-0.00001132,0.00
 002339,0.00107256,0.00139681,-0.00343394,-0.00347596,-0.00118782,0.002
 75732,0.00032285,-0.00021990,0.00030359,0.00017646,0.00011326,-0.00018
 314,-0.00015855,-0.00000378,-0.00006738,0.00001051,-0.00005936,0.00025
 484,-0.43617606,0.13471105,0.07470965,0.44993022,0.00000527,0.00118423
 ,0.00001945,-0.00000622,-0.00021079,0.00008649,0.00001650,0.00005438,0
 .00004136,-0.00002461,0.00011294,0.00002539,-0.00000272,-0.00006499,0.
 00000306,-0.00002114,0.00002616,0.00002174,0.00000373,0.00002578,0.000
 00181,0.00000079,-0.00007184,-0.00006217,-0.00005095,0.00003229,0.0000
 3391,0.00000495,0.00003984,0.00000281,-0.00103278,-0.00157091,0.003711
 59,0.00086553,0.00351035,-0.00650358,0.00040123,0.00010684,-0.00020738
 ,-0.00004017,-0.00020922,-0.00002248,0.00005750,0.00005049,0.00009715,
 -0.00001774,0.00004623,-0.00004814,0.08424012,-0.06414779,0.00893903,-
 0.12978530,0.07039851,0.00046176,0.00018544,-0.00017671,-0.00013906,-0
 .00003152,0.00007813,0.00007513,0.00003153,-0.00001805,0.00007311,0.00
 002536,-0.00010501,-0.00006745,-0.00004421,0.00002767,0.00002444,0.000
 01969,0.00000155,0.00002545,0.00001029,-0.00000049,-0.00009597,0.00000
 473,-0.00014619,-0.00001213,0.00000270,0.00005269,0.00001205,-0.000002
 12,0.00002374,-0.00154165,0.00172162,-0.00723423,0.01543584,-0.0059502
 9,0.00927920,0.00075904,0.00003464,-0.00043542,-0.00021279,-0.00012937
 ,-0.00000543,0.00023026,0.00000841,0.00021780,0.00001434,0.00002280,-0
 .00008977,0.09602519,-0.00781816,-0.06141564,-0.08370951,-0.00111103,0
 .05076971,0.00088508,0.00009951,0.00051958,-0.00016398,-0.00007372,0.0
 0002989,0.00007279,0.00001408,0.00002100,0.00005065,0.00002837,-0.0000
 6216,-0.00006861,-0.00000159,-0.00006523,0.00002740,-0.00000153,0.0000
 1350,0.00002156,-0.00000589,0.00002136,-0.00003088,0.00016655,-0.00026
 274,-0.00003239,-0.00007410,0.00007832,-0.00003622,-0.00007487,0.00007
 610,-0.00320615,0.00056710,0.00518651,0.00713621,-0.00484834,-0.007028
 96,0.00041243,-0.00010618,0.00074664,-0.00021278,-0.00000145,-0.000212
 21,0.00021348,-0.00007644,0.00026808,0.00002800,-0.00001823,0.00008567
 ,-0.07167133,0.06393125,-0.01710754,-0.01135795,0.04538601,-0.02735807
 ,0.07793270,-0.00014687,-0.00012566,0.00049894,-0.00000781,-0.00003660
 ,-0.00022062,-0.00002497,0.00001898,0.00002406,0.00000920,0.00004963,0
 .00002999,0.00001238,0.00000517,-0.00010184,-0.00000384,-0.00000334,0.
 00002464,-0.00000755,0.00001539,0.00001973,0.00011429,-0.00000830,-0.0
 0005270,-0.00006275,-0.00001708,0.00004277,-0.00002517,0.00002833,0.00
 002031,0.00211142,0.00043794,-0.00455445,-0.00331041,0.00138513,0.0033
 8387,0.00018635,0.00016387,-0.00053352,0.00012593,0.00003512,-0.000150
 51,-0.00012371,0.00002277,-0.00001333,-0.00001070,-0.00002387,0.000183
 55,0.11074464,-0.32458922,0.20118304,-0.00466991,-0.00931249,0.0130194
 9,-0.10491052,0.33195424,0.00051869,0.00076372,-0.00051379,-0.00007810
 ,-0.00009131,0.00016106,0.00006507,0.00003866,-0.00000717,0.00001467,0
 .00004590,-0.00005601,-0.00006000,-0.00006319,0.00006372,0.00001582,0.
 00002610,-0.00000157,0.00002596,0.00001712,-0.00000682,-0.00012959,-0.
 00000200,-0.00019667,-0.00001280,-0.00000145,0.00006992,0.00001948,0.0
 0000255,0.00003611,0.00241532,-0.00304149,-0.00402236,-0.00651178,0.01
 448578,0.00194253,0.00037679,0.00057892,-0.00211995,-0.00030164,-0.000
 16482,0.00003386,0.00029769,0.00000619,0.00026736,0.00000749,0.0000400
 9,-0.00016162,-0.05071815,0.20519167,-0.16666116,0.00900484,-0.0050290
 0,0.00917645,0.04505026,-0.21280345,0.16199614\\-0.00618833,0.00514174
 ,-0.00445089,-0.00070472,0.00819866,0.00540745,0.01133632,0.00093235,-
 0.00098683,-0.00946519,-0.00814500,0.00080988,0.00518338,0.00279660,-0
 .00198843,-0.00778608,0.00893643,0.00231919,0.00394086,-0.01070102,-0.
 00370268,0.00870533,0.00674571,-0.00665650,-0.00614520,0.00541373,0.00
 880946,0.00314633,-0.01118895,-0.00118464,0.00593836,-0.01093759,0.010
 69754,-0.00013422,0.00967271,-0.00528387,-0.00687133,-0.00442216,-0.00
 698300,0.01632383,-0.00840955,-0.00780994,-0.00906829,0.00482576,0.002
 50077,-0.00429245,0.00550181,0.00407240,-0.00942022,-0.01333623,-0.002
 99183,-0.00436064,0.01107189,0.00106808,0.00986226,-0.00209688,0.00635
 384\\\@


 SUCCESS IS NEVER CERTAIN,
 FAILURE IS NEVER FINAL.
 Job cpu time:       0 days  0 hours 47 minutes  2.5 seconds.
 Elapsed time:       0 days  0 hours  1 minutes 41.6 seconds.
 File lengths (MBytes):  RWF=   2793 Int=      0 D2E=      0 Chk=      3 Scr=      1
 Normal termination of Gaussian 16 at Wed May 11 21:56:37 2022.
