 Entering Gaussian System, Link 0=g16
 Initial command:
 /cm/shared/apps/gaussian/intel/EM64T/SSE4_2-enabled/binary//g16/l1.exe "/scratch/florez/25750/Gau-29586.inp" -scrdir="/scratch/florez/25750/"
 Entering Link 1 = /cm/shared/apps/gaussian/intel/EM64T/SSE4_2-enabled/binary//g16/l1.exe PID=     29589.
  
 Copyright (c) 1988,1990,1992,1993,1995,1998,2003,2009,2016,
            Gaussian, Inc.  All Rights Reserved.
  
 This is part of the Gaussian(R) 16 program.  It is based on
 the Gaussian(R) 09 system (copyright 2009, Gaussian, Inc.),
 the Gaussian(R) 03 system (copyright 2003, Gaussian, Inc.),
 the Gaussian(R) 98 system (copyright 1998, Gaussian, Inc.),
 the Gaussian(R) 94 system (copyright 1995, Gaussian, Inc.),
 the Gaussian 92(TM) system (copyright 1992, Gaussian, Inc.),
 the Gaussian 90(TM) system (copyright 1990, Gaussian, Inc.),
 the Gaussian 88(TM) system (copyright 1988, Gaussian, Inc.),
 the Gaussian 86(TM) system (copyright 1986, Carnegie Mellon
 University), and the Gaussian 82(TM) system (copyright 1983,
 Carnegie Mellon University). Gaussian is a federally registered
 trademark of Gaussian, Inc.
  
 This software contains proprietary and confidential information,
 including trade secrets, belonging to Gaussian, Inc.
  
 This software is provided under written license and may be
 used, copied, transmitted, or stored only in accord with that
 written license.
  
 The following legend is applicable only to US Government
 contracts under FAR:
  
                    RESTRICTED RIGHTS LEGEND
  
 Use, reproduction and disclosure by the US Government is
 subject to restrictions as set forth in subparagraphs (a)
 and (c) of the Commercial Computer Software - Restricted
 Rights clause in FAR 52.227-19.
  
 Gaussian, Inc.
 340 Quinnipiac St., Bldg. 40, Wallingford CT 06492
  
  
 ---------------------------------------------------------------
 Warning -- This program may not be used in any manner that
 competes with the business of Gaussian, Inc. or will provide
 assistance to any competitor of Gaussian, Inc.  The licensee
 of this program is prohibited from giving any competitor of
 Gaussian, Inc. access to this program.  By using this program,
 the user acknowledges that Gaussian, Inc. is engaged in the
 business of creating and licensing software in the field of
 computational chemistry and represents and warrants to the
 licensee that it is not a competitor of Gaussian, Inc. and that
 it will not use this program in any manner prohibited above.
 ---------------------------------------------------------------
  

 Cite this work as:
 Gaussian 16, Revision A.03,
 M. J. Frisch, G. W. Trucks, H. B. Schlegel, G. E. Scuseria, 
 M. A. Robb, J. R. Cheeseman, G. Scalmani, V. Barone, 
 G. A. Petersson, H. Nakatsuji, X. Li, M. Caricato, A. V. Marenich, 
 J. Bloino, B. G. Janesko, R. Gomperts, B. Mennucci, H. P. Hratchian, 
 J. V. Ortiz, A. F. Izmaylov, J. L. Sonnenberg, D. Williams-Young, 
 F. Ding, F. Lipparini, F. Egidi, J. Goings, B. Peng, A. Petrone, 
 T. Henderson, D. Ranasinghe, V. G. Zakrzewski, J. Gao, N. Rega, 
 G. Zheng, W. Liang, M. Hada, M. Ehara, K. Toyota, R. Fukuda, 
 J. Hasegawa, M. Ishida, T. Nakajima, Y. Honda, O. Kitao, H. Nakai, 
 T. Vreven, K. Throssell, J. A. Montgomery, Jr., J. E. Peralta, 
 F. Ogliaro, M. J. Bearpark, J. J. Heyd, E. N. Brothers, K. N. Kudin, 
 V. N. Staroverov, T. A. Keith, R. Kobayashi, J. Normand, 
 K. Raghavachari, A. P. Rendell, J. C. Burant, S. S. Iyengar, 
 J. Tomasi, M. Cossi, J. M. Millam, M. Klene, C. Adamo, R. Cammi, 
 J. W. Ochterski, R. L. Martin, K. Morokuma, O. Farkas, 
 J. B. Foresman, and D. J. Fox, Gaussian, Inc., Wallingford CT, 2016.
 
 ******************************************
 Gaussian 16:  ES64L-G16RevA.03 25-Dec-2016
                11-May-2022 
 ******************************************
 %chk=w6s13.chk
 %nproc=28
 Will use up to   28 processors via shared memory.
 %mem=500gb
 ------------------------
 #p MP2(full) SDDAll freq
 ------------------------
 1/10=4,30=1,38=1/1,3;
 2/12=2,17=6,18=5,40=1/2;
 3/5=17,6=6,11=9,25=1,30=1,71=2,140=1/1,2,3;
 4//1;
 5/5=2,38=5,98=1/2;
 8/6=3,8=1,10=90,19=11/1;
 9/15=3,16=-3/6;
 11/6=1,8=1,15=11,17=11,24=-1,27=1,28=-2,29=300,32=6,42=3/1,2,10;
 10/6=2,21=1/2;
 8/6=4,8=1,10=90,19=11/11,4;
 10/5=1,20=4/2;
 11/12=2,14=11,16=1,28=-2,42=3/2,10,12;
 6/7=2,8=2,9=2,10=2/1;
 7/8=1,10=1,12=2,25=1,44=2/1,2,3,16;
 1/10=4,30=1/3;
 99//99;
 Leave Link    1 at Wed May 11 22:00:24 2022, MaxMem= 67108864000 cpu:               1.4 elap:               0.1
 (Enter /cm/shared/apps/gaussian/intel/EM64T/SSE4_2-enabled/binary//g16/l101.exe)
 ----------------------------------------------------------------------
 file 'w6s13.log' Now we use Def2-QZVPPD, but it was opt at: ---'ZORA-S
 R+SO PBE QZ4P'---
 ----------------------------------------------------------------------
 Symbolic Z-matrix:
 Charge =  2 Multiplicity = 1
 Hg(Fragment=1)        0.31929  -0.08151  -0.32252 
 O(Fragment=2)        -2.96442  -1.13396   1.51035 
 H(Fragment=2)        -3.67632  -1.74702   1.2472 
 H(Fragment=2)        -3.17979  -0.87397   2.42548 
 O(Fragment=2)         1.84822   1.30154  -0.85948 
 H(Fragment=2)         1.67611   2.35907  -0.7725 
 H(Fragment=2)         2.72479   1.09092  -0.48798 
 O(Fragment=2)        -0.53876  -1.81777   0.73283 
 H(Fragment=2)        -1.4428   -1.63388   1.15631 
 H(Fragment=2)         0.02635  -2.26803   1.38839 
 O(Fragment=2)         0.17357  -1.14415  -2.50007 
 H(Fragment=2)        -0.05879  -2.08307  -2.60851 
 H(Fragment=2)         0.8061   -0.94169  -3.21224 
 O(Fragment=2)        -1.85197   0.86118  -0.16097 
 H(Fragment=2)        -2.50035   0.30305   0.32943 
 H(Fragment=2)        -2.30388   1.19822  -0.95483 
 O(Fragment=2)         1.38768   3.74167  -0.78555 
 H(Fragment=2)         1.62854   4.29626  -0.02203 
 H(Fragment=2)         1.65135   4.23983  -1.58038 
 
 ITRead=  0  0  0  0  0  0  0  0  0  0  0  0  0  0  0  0  0  0  0
 MicOpt= -1 -1 -1 -1 -1 -1 -1 -1 -1 -1 -1 -1 -1 -1 -1 -1 -1 -1 -1
 NAtoms=     19 NQM=       19 NQMF=       0 NMMI=      0 NMMIF=      0
                NMic=       0 NMicF=      0.
                    Isotopes and Nuclear Properties:
 (Nuclear quadrupole moments (NQMom) in fm**2, nuclear magnetic moments (NMagM)
  in nuclear magnetons)

  Atom         1           2           3           4           5           6           7           8           9          10
 IAtWgt=         202          16           1           1          16           1           1          16           1           1
 AtmWgt= 201.9706000  15.9949146   1.0078250   1.0078250  15.9949146   1.0078250   1.0078250  15.9949146   1.0078250   1.0078250
 NucSpn=           0           0           1           1           0           1           1           0           1           1
 AtZEff=  -0.0000000  -0.0000000  -0.0000000  -0.0000000  -0.0000000  -0.0000000  -0.0000000  -0.0000000  -0.0000000  -0.0000000
 NQMom=    0.0000000   0.0000000   0.0000000   0.0000000   0.0000000   0.0000000   0.0000000   0.0000000   0.0000000   0.0000000
 NMagM=    0.0000000   0.0000000   2.7928460   2.7928460   0.0000000   2.7928460   2.7928460   0.0000000   2.7928460   2.7928460
 AtZNuc=  80.0000000   8.0000000   1.0000000   1.0000000   8.0000000   1.0000000   1.0000000   8.0000000   1.0000000   1.0000000

  Atom        11          12          13          14          15          16          17          18          19
 IAtWgt=          16           1           1          16           1           1          16           1           1
 AtmWgt=  15.9949146   1.0078250   1.0078250  15.9949146   1.0078250   1.0078250  15.9949146   1.0078250   1.0078250
 NucSpn=           0           1           1           0           1           1           0           1           1
 AtZEff=  -0.0000000  -0.0000000  -0.0000000  -0.0000000  -0.0000000  -0.0000000  -0.0000000  -0.0000000  -0.0000000
 NQMom=    0.0000000   0.0000000   0.0000000   0.0000000   0.0000000   0.0000000   0.0000000   0.0000000   0.0000000
 NMagM=    0.0000000   2.7928460   2.7928460   0.0000000   2.7928460   2.7928460   0.0000000   2.7928460   2.7928460
 AtZNuc=   8.0000000   1.0000000   1.0000000   8.0000000   1.0000000   1.0000000   8.0000000   1.0000000   1.0000000
 Leave Link  101 at Wed May 11 22:00:24 2022, MaxMem= 67108864000 cpu:               2.2 elap:               0.1
 (Enter /cm/shared/apps/gaussian/intel/EM64T/SSE4_2-enabled/binary//g16/l103.exe)

 GradGradGradGradGradGradGradGradGradGradGradGradGradGradGradGradGradGrad
 Berny optimization.
 Initialization pass.
 Trust Radius=3.00D-01 FncErr=1.00D-07 GrdErr=1.00D-07 EigMax=2.50D+02 EigMin=1.00D-04
 Number of steps in this run=      2 maximum allowed number of steps=      2.
 GradGradGradGradGradGradGradGradGradGradGradGradGradGradGradGradGradGrad

 Leave Link  103 at Wed May 11 22:00:24 2022, MaxMem= 67108864000 cpu:               1.1 elap:               0.1
 (Enter /cm/shared/apps/gaussian/intel/EM64T/SSE4_2-enabled/binary//g16/l202.exe)
                          Input orientation:                          
 ---------------------------------------------------------------------
 Center     Atomic      Atomic             Coordinates (Angstroms)
 Number     Number       Type             X           Y           Z
 ---------------------------------------------------------------------
      1         80           0        0.319292   -0.081512   -0.322522
      2          8           0       -2.964422   -1.133956    1.510346
      3          1           0       -3.676319   -1.747018    1.247199
      4          1           0       -3.179792   -0.873972    2.425479
      5          8           0        1.848221    1.301544   -0.859484
      6          1           0        1.676110    2.359071   -0.772503
      7          1           0        2.724792    1.090922   -0.487977
      8          8           0       -0.538758   -1.817771    0.732830
      9          1           0       -1.442799   -1.633883    1.156307
     10          1           0        0.026350   -2.268034    1.388394
     11          8           0        0.173570   -1.144149   -2.500068
     12          1           0       -0.058785   -2.083070   -2.608514
     13          1           0        0.806096   -0.941685   -3.212243
     14          8           0       -1.851967    0.861178   -0.160966
     15          1           0       -2.500346    0.303049    0.329426
     16          1           0       -2.303875    1.198224   -0.954828
     17          8           0        1.387680    3.741666   -0.785549
     18          1           0        1.628541    4.296260   -0.022034
     19          1           0        1.651352    4.239830   -1.580375
 ---------------------------------------------------------------------
                    Distance matrix (angstroms):
                    1          2          3          4          5
     1  Hg   0.000000
     2  O    3.905102   0.000000
     3  H    4.604654   0.975648   0.000000
     4  H    4.519191   0.975420   1.548255   0.000000
     5  O    2.130445   5.891459   6.652247   6.387861   0.000000
     6  H    2.828407   6.240767   7.041851   6.652777   1.074966
     7  H    2.681120   6.427327   7.213804   6.871182   0.975067
     8  O    2.205587   2.637419   3.180231   3.275802   4.238308
     9  H    2.775204   1.640307   2.238230   2.281536   4.848810
    10  H    2.791761   3.200894   3.741811   3.646684   4.595003
    11  O    2.427373   5.092202   5.406210   5.964817   3.387829
    12  H    3.061852   5.129186   5.297736   6.045138   4.260445
    13  H    3.054073   6.046207   6.373949   6.904766   3.413733
    14  O    2.372579   2.830442   3.480499   3.385788   3.791206
    15  H    2.919466   1.917009   2.535349   2.498092   4.617416
    16  H    2.986393   3.457234   3.925172   4.060505   4.154476
    17  O    3.996566   6.927021   7.739625   7.244075   2.484303
    18  H    4.579226   7.275352   8.140866   7.472729   3.117356
    19  H    4.693674   7.728875   8.498329   8.095541   3.031825
                    6          7          8          9         10
     6  H    0.000000
     7  H    1.669997   0.000000
     8  O    4.961620   4.538901   0.000000
     9  H    5.421400   5.243763   1.015105   0.000000
    10  H    5.366683   4.699462   0.975627   1.616914   0.000000
    11  O    4.185052   3.943702   3.378285   4.027601   4.050300
    12  H    5.110129   4.724320   3.386050   4.036229   4.002091
    13  H    4.195741   3.903141   4.259080   4.961945   4.851089
    14  O    3.881364   4.594175   3.114507   2.850957   3.964916
    15  H    4.783749   5.347051   2.916923   2.356659   3.757136
    16  H    4.149830   5.051431   3.880728   3.635818   4.789111
    17  O    1.412420   2.983766   6.076510   6.378005   6.534198
    18  H    2.078020   3.419512   6.530573   6.781461   6.902628
    19  H    2.047077   3.501604   6.844124   7.180787   7.335292
                   11         12         13         14         15
    11  O    0.000000
    12  H    0.973305   0.000000
    13  H    0.973794   1.554113   0.000000
    14  O    3.687212   4.227835   4.430113   0.000000
    15  H    4.153341   4.504029   5.002533   0.986097   0.000000
    16  H    3.743289   4.306042   4.398528   0.973672   1.577735
    17  O    5.318348   6.272401   5.306681   4.379798   5.308861
    18  H    6.152694   7.087510   6.187885   4.892139   5.754734
    19  H    5.658348   6.630287   5.497777   5.069838   6.031764
                   16         17         18         19
    16  H    0.000000
    17  O    4.486126   0.000000
    18  H    5.092330   0.973932   0.000000
    19  H    5.028568   0.974391   1.559529   0.000000
 Stoichiometry    H12HgO6(2+)
 Framework group  C1[X(H12HgO6)]
 Deg. of freedom    51
 Full point group                 C1      NOp   1
 Largest Abelian subgroup         C1      NOp   1
 Largest concise Abelian subgroup C1      NOp   1
                         Standard orientation:                         
 ---------------------------------------------------------------------
 Center     Atomic      Atomic             Coordinates (Angstroms)
 Number     Number       Type             X           Y           Z
 ---------------------------------------------------------------------
      1         80           0       -0.069222   -0.255830   -0.191169
      2          8           0        3.400609    1.515184    0.080144
      3          1           0        4.192982    1.294306    0.604782
      4          1           0        3.671249    2.263317   -0.484209
      5          8           0       -2.186389   -0.284147   -0.426963
      6          1           0       -2.764969    0.599477   -0.226954
      7          1           0       -2.488899   -0.678594   -1.265804
      8          8           0        2.025737   -0.549805   -0.815138
      9          1           0        2.631367    0.235824   -0.599645
     10          1           0        2.184534   -0.821195   -1.738707
     11          8           0        0.017524   -2.030991    1.462135
     12          1           0        0.771478   -2.642446    1.532845
     13          1           0       -0.771303   -2.551584    1.696675
     14          8           0        0.756909    1.562120    1.090119
     15          1           0        1.723656    1.725545    0.984854
     16          1           0        0.555027    1.628104    2.040344
     17          8           0       -3.522692    1.722498    0.172558
     18          1           0       -3.800536    2.382069   -0.487982
     19          1           0       -4.300429    1.552675    0.734452
 ---------------------------------------------------------------------
 Rotational constants (GHZ):           1.5094684           0.7004265           0.5782396
 Leave Link  202 at Wed May 11 22:00:25 2022, MaxMem= 67108864000 cpu:               1.6 elap:               0.1
 (Enter /cm/shared/apps/gaussian/intel/EM64T/SSE4_2-enabled/binary//g16/l301.exe)
 Standard basis: SDDAll (6D, 10F)
 Ernie: Thresh=  0.10000D-02 Tol=  0.10000D-05 Strict=F.
 There are   129 symmetry adapted cartesian basis functions of A   symmetry.
 There are   129 symmetry adapted basis functions of A   symmetry.
   129 basis functions,   227 primitive gaussians,   129 cartesian basis functions
    33 alpha electrons       33 beta electrons
       nuclear repulsion energy       350.8373098404 Hartrees.
 IExCor=    0 DFT=F Ex=HF Corr=None ExCW=0 ScaHFX=  1.000000
 ScaDFX=  1.000000  1.000000  1.000000  1.000000 ScalE2=  1.000000  1.000000
 IRadAn=      5 IRanWt=     -1 IRanGd=            0 ICorTp=0 IEmpDi=  4
 NAtoms=   19 NActive=   19 NUniq=   19 SFac= 1.00D+00 NAtFMM=   60 NAOKFM=F Big=F
 Integral buffers will be    131072 words long.
 Raffenetti 1 integral format.
 Two-electron integral symmetry is turned on.
 Leave Link  301 at Wed May 11 22:00:25 2022, MaxMem= 67108864000 cpu:               1.2 elap:               0.1
 (Enter /cm/shared/apps/gaussian/intel/EM64T/SSE4_2-enabled/binary//g16/l302.exe)
 NPDir=0 NMtPBC=     1 NCelOv=     1 NCel=       1 NClECP=     1 NCelD=      1
         NCelK=      1 NCelE2=     1 NClLst=     1 CellRange=     0.0.
 One-electron integrals computed using PRISM.
 One-electron integral symmetry used in STVInt
   1 Symmetry operations used in ECPInt.
 ECPInt:  NShTT=    2346 NPrTT=    7709 LenC2=    2315 LenP2D=    6037.
 LDataN:  DoStor=T MaxTD1= 7 Len=  274
 NBasis=   129 RedAO= T EigKep=  3.83D-04  NBF=   129
 NBsUse=   129 1.00D-06 EigRej= -1.00D+00 NBFU=   129
 Leave Link  302 at Wed May 11 22:00:25 2022, MaxMem= 67108864000 cpu:               7.7 elap:               0.3
 (Enter /cm/shared/apps/gaussian/intel/EM64T/SSE4_2-enabled/binary//g16/l303.exe)
 DipDrv:  MaxL=1.
 Leave Link  303 at Wed May 11 22:00:25 2022, MaxMem= 67108864000 cpu:               0.8 elap:               0.1
 (Enter /cm/shared/apps/gaussian/intel/EM64T/SSE4_2-enabled/binary//g16/l401.exe)
 ExpMin= 2.00D-02 ExpMax= 4.71D+01 ExpMxC= 4.71D+01 IAcc=3 IRadAn=         5 AccDes= 0.00D+00
 Harris functional with IExCor=  205 and IRadAn=       5 diagonalized for initial guess.
 HarFok:  IExCor=  205 AccDes= 0.00D+00 IRadAn=         5 IDoV= 1 UseB2=F ITyADJ=14
 ICtDFT=  3500011 ScaDFX=  1.000000  1.000000  1.000000  1.000000
 Defaulting to unpruned grid for atomic number  80.
 FoFCou: FMM=F IPFlag=           0 FMFlag=      100000 FMFlg1=           0
         NFxFlg=           0 DoJE=T BraDBF=F KetDBF=T FulRan=T
         wScrn=  0.000000 ICntrl=       500 IOpCl=  0 I1Cent=   200000004 NGrid=           0
         NMat0=    1 NMatS0=      1 NMatT0=    0 NMatD0=    1 NMtDS0=    0 NMtDT0=    0
 Petite list used in FoFCou.
 Harris En= -257.138077475028    
 JPrj=0 DoOrth=F DoCkMO=F.
 Leave Link  401 at Wed May 11 22:00:25 2022, MaxMem= 67108864000 cpu:               8.9 elap:               0.4
 (Enter /cm/shared/apps/gaussian/intel/EM64T/SSE4_2-enabled/binary//g16/l502.exe)
 Integral symmetry usage will be decided dynamically.
 Closed shell SCF:
 Using DIIS extrapolation, IDIIS=  1040.
 NGot= 67108864000 LenX= 67108825374 LenY= 67108808292
 Requested convergence on RMS density matrix=1.00D-08 within 128 cycles.
 Requested convergence on MAX density matrix=1.00D-06.
 Requested convergence on             energy=1.00D-06.
 No special actions if energy rises.
 Fock matrices will be formed incrementally for  20 cycles.

 Cycle   1  Pass 0  IDiag  1:
 FoFJK:  IHMeth= 1 ICntrl=       0 DoSepK=F KAlg= 0 I1Cent=           0 FoldK=F
 IRaf= 960000000 NMat=       1 IRICut=       1 DoRegI=T DoRafI=F ISym2E= 0 IDoP0=0 IntGTp=1.
 FoFCou: FMM=F IPFlag=           0 FMFlag=      100000 FMFlg1=           0
         NFxFlg=           0 DoJE=F BraDBF=F KetDBF=F FulRan=T
         wScrn=  0.000000 ICntrl=         0 IOpCl=  0 I1Cent=           0 NGrid=           0
         NMat0=    1 NMatS0=      1 NMatT0=    0 NMatD0=    1 NMtDS0=    0 NMtDT0=    0
 Symmetry not used in FoFCou.
 E= -252.998307988650    
 DIIS: error= 3.94D-02 at cycle   1 NSaved=   1.
 NSaved= 1 IEnMin= 1 EnMin= -252.998307988650     IErMin= 1 ErrMin= 3.94D-02
 ErrMax= 3.94D-02  0.00D+00 EMaxC= 1.00D-01 BMatC= 5.84D-01 BMatP= 5.84D-01
 IDIUse=3 WtCom= 6.06D-01 WtEn= 3.94D-01
 Coeff-Com:  0.100D+01
 Coeff-En:   0.100D+01
 Coeff:      0.100D+01
 Gap=     0.698 Goal=   None    Shift=    0.000
 GapD=    0.698 DampG=2.000 DampE=0.250 DampFc=0.5000 IDamp=-1.
 Damping current iteration by 5.00D-01
 RMSDP=7.25D-03 MaxDP=2.11D-01              OVMax= 1.68D-01

 Cycle   2  Pass 0  IDiag  1:
 RMSU=  3.62D-03    CP:  1.01D+00
 E= -253.242215612772     Delta-E=       -0.243907624123 Rises=F Damp=T
 DIIS: error= 1.14D-02 at cycle   2 NSaved=   2.
 NSaved= 2 IEnMin= 2 EnMin= -253.242215612772     IErMin= 2 ErrMin= 1.14D-02
 ErrMax= 1.14D-02  0.00D+00 EMaxC= 1.00D-01 BMatC= 3.89D-02 BMatP= 5.84D-01
 IDIUse=3 WtCom= 8.86D-01 WtEn= 1.14D-01
 Coeff-Com: -0.255D+00 0.126D+01
 Coeff-En:   0.000D+00 0.100D+01
 Coeff:     -0.226D+00 0.123D+01
 Gap=     0.547 Goal=   None    Shift=    0.000
 RMSDP=2.32D-03 MaxDP=6.26D-02 DE=-2.44D-01 OVMax= 5.08D-02

 Cycle   3  Pass 0  IDiag  1:
 RMSU=  1.84D-03    CP:  9.98D-01  1.39D+00
 E= -253.450805783954     Delta-E=       -0.208590171182 Rises=F Damp=F
 DIIS: error= 3.93D-03 at cycle   3 NSaved=   3.
 NSaved= 3 IEnMin= 3 EnMin= -253.450805783954     IErMin= 3 ErrMin= 3.93D-03
 ErrMax= 3.93D-03  0.00D+00 EMaxC= 1.00D-01 BMatC= 2.33D-03 BMatP= 3.89D-02
 IDIUse=3 WtCom= 9.61D-01 WtEn= 3.93D-02
 Coeff-Com:  0.482D-01-0.199D+00 0.115D+01
 Coeff-En:   0.000D+00 0.000D+00 0.100D+01
 Coeff:      0.463D-01-0.192D+00 0.115D+01
 Gap=     0.535 Goal=   None    Shift=    0.000
 RMSDP=8.31D-04 MaxDP=2.45D-02 DE=-2.09D-01 OVMax= 1.64D-02

 Cycle   4  Pass 0  IDiag  1:
 RMSU=  4.66D-04    CP:  9.92D-01  1.36D+00  1.35D+00
 E= -253.453887146905     Delta-E=       -0.003081362951 Rises=F Damp=F
 DIIS: error= 1.56D-03 at cycle   4 NSaved=   4.
 NSaved= 4 IEnMin= 4 EnMin= -253.453887146905     IErMin= 4 ErrMin= 1.56D-03
 ErrMax= 1.56D-03  0.00D+00 EMaxC= 1.00D-01 BMatC= 3.82D-04 BMatP= 2.33D-03
 IDIUse=3 WtCom= 9.84D-01 WtEn= 1.56D-02
 Coeff-Com:  0.269D-01-0.125D+00 0.331D+00 0.767D+00
 Coeff-En:   0.000D+00 0.000D+00 0.000D+00 0.100D+01
 Coeff:      0.265D-01-0.123D+00 0.326D+00 0.771D+00
 Gap=     0.538 Goal=   None    Shift=    0.000
 RMSDP=2.41D-04 MaxDP=6.98D-03 DE=-3.08D-03 OVMax= 7.24D-03

 Cycle   5  Pass 0  IDiag  1:
 RMSU=  1.67D-04    CP:  9.92D-01  1.38D+00  1.43D+00  1.08D+00
 E= -253.454426588409     Delta-E=       -0.000539441504 Rises=F Damp=F
 DIIS: error= 5.77D-04 at cycle   5 NSaved=   5.
 NSaved= 5 IEnMin= 5 EnMin= -253.454426588409     IErMin= 5 ErrMin= 5.77D-04
 ErrMax= 5.77D-04  0.00D+00 EMaxC= 1.00D-01 BMatC= 3.08D-05 BMatP= 3.82D-04
 IDIUse=3 WtCom= 9.94D-01 WtEn= 5.77D-03
 Coeff-Com: -0.165D-01 0.621D-01-0.195D+00-0.275D+00 0.142D+01
 Coeff-En:   0.000D+00 0.000D+00 0.000D+00 0.000D+00 0.100D+01
 Coeff:     -0.164D-01 0.617D-01-0.194D+00-0.274D+00 0.142D+01
 Gap=     0.537 Goal=   None    Shift=    0.000
 RMSDP=1.79D-04 MaxDP=5.29D-03 DE=-5.39D-04 OVMax= 5.65D-03

 Cycle   6  Pass 0  IDiag  1:
 RMSU=  5.78D-05    CP:  9.91D-01  1.38D+00  1.48D+00  1.28D+00  1.59D+00
 E= -253.454543984498     Delta-E=       -0.000117396089 Rises=F Damp=F
 DIIS: error= 1.62D-04 at cycle   6 NSaved=   6.
 NSaved= 6 IEnMin= 6 EnMin= -253.454543984498     IErMin= 6 ErrMin= 1.62D-04
 ErrMax= 1.62D-04  0.00D+00 EMaxC= 1.00D-01 BMatC= 4.45D-06 BMatP= 3.08D-05
 IDIUse=3 WtCom= 9.98D-01 WtEn= 1.62D-03
 Coeff-Com: -0.478D-02 0.214D-01-0.754D-01-0.107D+00 0.302D+00 0.864D+00
 Coeff-En:   0.000D+00 0.000D+00 0.000D+00 0.000D+00 0.000D+00 0.100D+01
 Coeff:     -0.477D-02 0.213D-01-0.753D-01-0.107D+00 0.301D+00 0.864D+00
 Gap=     0.537 Goal=   None    Shift=    0.000
 RMSDP=4.55D-05 MaxDP=1.37D-03 DE=-1.17D-04 OVMax= 1.50D-03

 Cycle   7  Pass 0  IDiag  1:
 RMSU=  1.37D-05    CP:  9.91D-01  1.38D+00  1.50D+00  1.32D+00  1.73D+00
                    CP:  1.31D+00
 E= -253.454553217763     Delta-E=       -0.000009233265 Rises=F Damp=F
 DIIS: error= 5.14D-05 at cycle   7 NSaved=   7.
 NSaved= 7 IEnMin= 7 EnMin= -253.454553217763     IErMin= 7 ErrMin= 5.14D-05
 ErrMax= 5.14D-05  0.00D+00 EMaxC= 1.00D-01 BMatC= 5.91D-07 BMatP= 4.45D-06
 IDIUse=1 WtCom= 1.00D+00 WtEn= 0.00D+00
 Coeff-Com:  0.284D-02-0.870D-02 0.260D-01 0.445D-01-0.249D+00 0.672D-01
 Coeff-Com:  0.112D+01
 Coeff:      0.284D-02-0.870D-02 0.260D-01 0.445D-01-0.249D+00 0.672D-01
 Coeff:      0.112D+01
 Gap=     0.537 Goal=   None    Shift=    0.000
 RMSDP=2.27D-05 MaxDP=8.54D-04 DE=-9.23D-06 OVMax= 7.29D-04

 Cycle   8  Pass 0  IDiag  1:
 RMSU=  4.92D-06    CP:  9.91D-01  1.38D+00  1.50D+00  1.34D+00  1.80D+00
                    CP:  1.54D+00  1.29D+00
 E= -253.454554712893     Delta-E=       -0.000001495130 Rises=F Damp=F
 DIIS: error= 1.06D-05 at cycle   8 NSaved=   8.
 NSaved= 8 IEnMin= 8 EnMin= -253.454554712893     IErMin= 8 ErrMin= 1.06D-05
 ErrMax= 1.06D-05  0.00D+00 EMaxC= 1.00D-01 BMatC= 2.09D-08 BMatP= 5.91D-07
 IDIUse=1 WtCom= 1.00D+00 WtEn= 0.00D+00
 Coeff-Com: -0.440D-03 0.938D-03-0.105D-02-0.661D-02 0.420D-01-0.428D-01
 Coeff-Com: -0.256D+00 0.126D+01
 Coeff:     -0.440D-03 0.938D-03-0.105D-02-0.661D-02 0.420D-01-0.428D-01
 Coeff:     -0.256D+00 0.126D+01
 Gap=     0.537 Goal=   None    Shift=    0.000
 RMSDP=3.35D-06 MaxDP=1.33D-04 DE=-1.50D-06 OVMax= 1.04D-04

 Initial convergence to 1.0D-05 achieved.  Increase integral accuracy.
 Cycle   9  Pass 1  IDiag  1:
 E= -253.454554768059     Delta-E=       -0.000000055166 Rises=F Damp=F
 DIIS: error= 2.98D-06 at cycle   1 NSaved=   1.
 NSaved= 1 IEnMin= 1 EnMin= -253.454554768059     IErMin= 1 ErrMin= 2.98D-06
 ErrMax= 2.98D-06  0.00D+00 EMaxC= 1.00D-01 BMatC= 2.87D-09 BMatP= 2.87D-09
 IDIUse=1 WtCom= 1.00D+00 WtEn= 0.00D+00
 Coeff-Com:  0.100D+01
 Coeff:      0.100D+01
 Gap=     0.537 Goal=   None    Shift=    0.000
 RMSDP=3.35D-06 MaxDP=1.33D-04 DE=-5.52D-08 OVMax= 1.40D-05

 Cycle  10  Pass 1  IDiag  1:
 RMSU=  6.08D-07    CP:  1.00D+00
 E= -253.454554771541     Delta-E=       -0.000000003482 Rises=F Damp=F
 DIIS: error= 1.59D-06 at cycle   2 NSaved=   2.
 NSaved= 2 IEnMin= 2 EnMin= -253.454554771541     IErMin= 2 ErrMin= 1.59D-06
 ErrMax= 1.59D-06  0.00D+00 EMaxC= 1.00D-01 BMatC= 9.44D-10 BMatP= 2.87D-09
 IDIUse=1 WtCom= 1.00D+00 WtEn= 0.00D+00
 Coeff-Com:  0.318D+00 0.682D+00
 Coeff:      0.318D+00 0.682D+00
 Gap=     0.537 Goal=   None    Shift=    0.000
 RMSDP=2.37D-07 MaxDP=5.69D-06 DE=-3.48D-09 OVMax= 9.65D-06

 Cycle  11  Pass 1  IDiag  1:
 RMSU=  2.19D-07    CP:  1.00D+00  1.15D+00
 E= -253.454554772578     Delta-E=       -0.000000001037 Rises=F Damp=F
 DIIS: error= 7.61D-07 at cycle   3 NSaved=   3.
 NSaved= 3 IEnMin= 3 EnMin= -253.454554772578     IErMin= 3 ErrMin= 7.61D-07
 ErrMax= 7.61D-07  0.00D+00 EMaxC= 1.00D-01 BMatC= 1.07D-10 BMatP= 9.44D-10
 IDIUse=1 WtCom= 1.00D+00 WtEn= 0.00D+00
 Coeff-Com: -0.323D+00-0.283D+00 0.161D+01
 Coeff:     -0.323D+00-0.283D+00 0.161D+01
 Gap=     0.537 Goal=   None    Shift=    0.000
 RMSDP=3.26D-07 MaxDP=9.33D-06 DE=-1.04D-09 OVMax= 1.16D-05

 Cycle  12  Pass 1  IDiag  1:
 RMSU=  5.86D-08    CP:  1.00D+00  1.60D+00  1.75D+00
 E= -253.454554772962     Delta-E=       -0.000000000384 Rises=F Damp=F
 DIIS: error= 1.32D-07 at cycle   4 NSaved=   4.
 NSaved= 4 IEnMin= 4 EnMin= -253.454554772962     IErMin= 4 ErrMin= 1.32D-07
 ErrMax= 1.32D-07  0.00D+00 EMaxC= 1.00D-01 BMatC= 4.12D-12 BMatP= 1.07D-10
 IDIUse=1 WtCom= 1.00D+00 WtEn= 0.00D+00
 Coeff-Com: -0.734D-01-0.781D-01 0.297D+00 0.854D+00
 Coeff:     -0.734D-01-0.781D-01 0.297D+00 0.854D+00
 Gap=     0.537 Goal=   None    Shift=    0.000
 RMSDP=3.97D-08 MaxDP=1.23D-06 DE=-3.84D-10 OVMax= 1.36D-06

 Cycle  13  Pass 1  IDiag  1:
 RMSU=  1.52D-08    CP:  1.00D+00  1.65D+00  1.85D+00  1.18D+00
 E= -253.454554772972     Delta-E=       -0.000000000010 Rises=F Damp=F
 DIIS: error= 5.12D-08 at cycle   5 NSaved=   5.
 NSaved= 5 IEnMin= 5 EnMin= -253.454554772972     IErMin= 5 ErrMin= 5.12D-08
 ErrMax= 5.12D-08  0.00D+00 EMaxC= 1.00D-01 BMatC= 6.28D-13 BMatP= 4.12D-12
 IDIUse=1 WtCom= 1.00D+00 WtEn= 0.00D+00
 Coeff-Com:  0.644D-01 0.584D-01-0.317D+00-0.228D-01 0.122D+01
 Coeff:      0.644D-01 0.584D-01-0.317D+00-0.228D-01 0.122D+01
 Gap=     0.537 Goal=   None    Shift=    0.000
 RMSDP=2.24D-08 MaxDP=7.55D-07 DE=-1.01D-11 OVMax= 7.36D-07

 Cycle  14  Pass 1  IDiag  1:
 RMSU=  5.16D-09    CP:  1.00D+00  1.67D+00  1.90D+00  1.40D+00  1.35D+00
 E= -253.454554772976     Delta-E=       -0.000000000004 Rises=F Damp=F
 DIIS: error= 1.50D-08 at cycle   6 NSaved=   6.
 NSaved= 6 IEnMin= 6 EnMin= -253.454554772976     IErMin= 6 ErrMin= 1.50D-08
 ErrMax= 1.50D-08  0.00D+00 EMaxC= 1.00D-01 BMatC= 3.97D-14 BMatP= 6.28D-13
 IDIUse=1 WtCom= 1.00D+00 WtEn= 0.00D+00
 Coeff-Com:  0.138D-01 0.138D-01-0.631D-01-0.689D-01 0.189D+00 0.916D+00
 Coeff:      0.138D-01 0.138D-01-0.631D-01-0.689D-01 0.189D+00 0.916D+00
 Gap=     0.537 Goal=   None    Shift=    0.000
 RMSDP=3.79D-09 MaxDP=1.03D-07 DE=-4.21D-12 OVMax= 1.22D-07

 SCF Done:  E(RHF) =  -253.454554773     A.U. after   14 cycles
            NFock= 14  Conv=0.38D-08     -V/T= 2.9185
 KE= 1.321134741634D+02 PE=-1.246650006327D+03 EE= 5.102446675506D+02
 Leave Link  502 at Wed May 11 22:00:28 2022, MaxMem= 67108864000 cpu:              62.6 elap:               2.3
 (Enter /cm/shared/apps/gaussian/intel/EM64T/SSE4_2-enabled/binary//g16/l801.exe)
 Range of M.O.s used for correlation:     1   129
 NBasis=   129 NAE=    33 NBE=    33 NFC=     0 NFV=     0
 NROrb=    129 NOA=    33 NOB=    33 NVA=    96 NVB=    96

 **** Warning!!: The largest alpha MO coefficient is  0.28661709D+02

 Leave Link  801 at Wed May 11 22:00:28 2022, MaxMem= 67108864000 cpu:               0.5 elap:               0.0
 (Enter /cm/shared/apps/gaussian/intel/EM64T/SSE4_2-enabled/binary//g16/l906.exe)
 FulOut=F Deriv=T AODrv=T NAtomX=    19
   MMem=           0  MDisk=          33 MDiskD=          33
  W3Min=      549153 MinDsk=     1693460 NBas6D=         129
 NBas2D=        8499    NTT=        8385    LW2=     3308096
    MDV= 67108616483 MDiskM=     7225087 NBas2p=        8287
 Disk-based method using ON**2 memory for 33 occupieds at a time.
 Permanent disk used for amplitudes=    12443904 words.
 Estimated scratch disk usage=   134815647 words.
 IMap=   1   2   3   4   5   6   7   8   9  10  11  12  13  14  15  16  17  18  19  20
 IMap=  21  22  23  24  25  26  27  28  29  30  31  32  33
 Actual    scratch disk usage=   123149727 words.
 JobTyp=1 Pass  1:  I=   1 to  33 NPSUse= 28 ParTrn=T ParDer=T DoDerP=T.
 (rs|ai) integrals will be sorted in core.
 Spin components of T(2) and E(2):
     alpha-alpha T2 =       0.3546219835D-01 E2=     -0.1144647998D+00
     alpha-beta  T2 =       0.2092601853D+00 E2=     -0.6879868192D+00
     beta-beta   T2 =       0.3546219835D-01 E2=     -0.1144647998D+00
 The integrals were generated   1 times.
 ANorm=    0.1131452421D+01
 E2 =    -0.9169164189D+00 EUMP2 =    -0.25437147119186D+03
 Leave Link  906 at Wed May 11 22:00:43 2022, MaxMem= 67108864000 cpu:             437.1 elap:              15.6
 (Enter /cm/shared/apps/gaussian/intel/EM64T/SSE4_2-enabled/binary//g16/l1101.exe)
 Using compressed Sx but separate Hx and Fx, NAtomX=    19.
 Will process     20 centers per pass.
   1 Symmetry operations used in ECPInt.
 ECPInt:  NShTT=    2346 NPrTT=    7709 LenC2=    2315 LenP2D=    6037.
 LDataN:  DoStor=T MaxTD1= 8 Len=  415
 Leave Link 1101 at Wed May 11 22:00:44 2022, MaxMem= 67108864000 cpu:              13.0 elap:               0.5
 (Enter /cm/shared/apps/gaussian/intel/EM64T/SSE4_2-enabled/binary//g16/l1102.exe)
 Leave Link 1102 at Wed May 11 22:00:44 2022, MaxMem= 67108864000 cpu:               1.0 elap:               0.1
 (Enter /cm/shared/apps/gaussian/intel/EM64T/SSE4_2-enabled/binary//g16/l1110.exe)
 Forming Gx(P) for the SCF density, NAtomX=    19.
 Integral derivatives from FoFJK, PRISM(SPDF).
 Do as many integral derivatives as possible in FoFJK.
 G2DrvN: MDV=   67108862496.
 G2DrvN: will do    20 centers at a time, making    1 passes.
 Calling FoFCou, ICntrl=  3107 FMM=F I1Cent=   0 AccDes= 0.00D+00.
 FoFJK:  IHMeth= 1 ICntrl=    3107 DoSepK=F KAlg= 0 I1Cent=           0 FoldK=F
 IRaf=         0 NMat=       1 IRICut=       1 DoRegI=T DoRafI=F ISym2E= 0 IDoP0=0 IntGTp=1.
 FoFCou: FMM=F IPFlag=           0 FMFlag=      100000 FMFlg1=           0
         NFxFlg=           0 DoJE=F BraDBF=F KetDBF=F FulRan=T
         wScrn=  0.000000 ICntrl=      3107 IOpCl=  0 I1Cent=           0 NGrid=           0
         NMat0=    1 NMatS0=      1 NMatT0=    0 NMatD0=    1 NMtDS0=    0 NMtDT0=    0
 Symmetry not used in FoFCou.
 End of G2Drv F.D. properties file   721 does not exist.
 End of G2Drv F.D. properties file   722 does not exist.
 End of G2Drv F.D. properties file   788 does not exist.
 Leave Link 1110 at Wed May 11 22:00:44 2022, MaxMem= 67108864000 cpu:              13.8 elap:               0.5
 (Enter /cm/shared/apps/gaussian/intel/EM64T/SSE4_2-enabled/binary//g16/l1002.exe)
 Minotr:  Closed shell wavefunction.
          IDoAtm=1111111111111111111
          Direct CPHF calculation.
          Differentiating once with respect to electric field.
                with respect to dipole field.
          Differentiating once with respect to nuclear coordinates.
          Requested convergence is 1.0D-08 RMS, and 1.0D-07 maximum.
          Secondary convergence is 1.0D-12 RMS, and 1.0D-12 maximum.
          NewPWx=T KeepS1=T KeepF1=T KeepIn=T MapXYZ=F SortEE=F KeepMc=T.
 Keep R1 ints in memory in canonical form, NReq=41180595.
 FoFCou: FMM=F IPFlag=           0 FMFlag=           0 FMFlg1=           0
         NFxFlg=           0 DoJE=F BraDBF=F KetDBF=F FulRan=T
         wScrn=  0.000000 ICntrl=       600 IOpCl=  0 I1Cent=           0 NGrid=           0
         NMat0=    1 NMatS0=   8385 NMatT0=    0 NMatD0=    1 NMtDS0=    0 NMtDT0=    0
 Symmetry not used in FoFCou.
 Two-electron integral symmetry not used.
          MDV=   67108864000 using IRadAn=       1.
          Solving linear equations simultaneously, MaxMat=       0.
          There are    60 degrees of freedom in the 1st order CPHF.  IDoFFX=6 NUNeed=    60.
     57 vectors produced by pass  0 Test12= 5.28D-15 1.67D-09 XBig12= 1.08D+01 7.96D-01.
 AX will form    57 AO Fock derivatives at one time.
     57 vectors produced by pass  1 Test12= 5.28D-15 1.67D-09 XBig12= 1.56D-01 7.16D-02.
     57 vectors produced by pass  2 Test12= 5.28D-15 1.67D-09 XBig12= 2.07D-03 8.60D-03.
     57 vectors produced by pass  3 Test12= 5.28D-15 1.67D-09 XBig12= 1.90D-05 7.62D-04.
     57 vectors produced by pass  4 Test12= 5.28D-15 1.67D-09 XBig12= 1.33D-07 4.49D-05.
     57 vectors produced by pass  5 Test12= 5.28D-15 1.67D-09 XBig12= 5.95D-10 2.97D-06.
     35 vectors produced by pass  6 Test12= 5.28D-15 1.67D-09 XBig12= 2.74D-12 3.09D-07.
      4 vectors produced by pass  7 Test12= 5.28D-15 1.67D-09 XBig12= 1.18D-14 2.37D-08.
      1 vectors produced by pass  8 Test12= 5.28D-15 1.67D-09 XBig12= 5.81D-17 1.78D-09.
 InvSVY:  IOpt=1 It=  1 EMax= 2.22D-15
 Solved reduced A of dimension   382 with    60 vectors.
 FullF1:  Do perturbations      1 to      60.
 Saving first derivative matrices.
 End of Minotr F.D. properties file   721 does not exist.
 End of Minotr F.D. properties file   722 does not exist.
 End of Minotr F.D. properties file   788 does not exist.
 Leave Link 1002 at Wed May 11 22:00:46 2022, MaxMem= 67108864000 cpu:              48.8 elap:               1.8
 (Enter /cm/shared/apps/gaussian/intel/EM64T/SSE4_2-enabled/binary//g16/l811.exe)
 MDV= 67108864000.
 Form MO integral derivatives with frozen-active canonical formalism.
 MOERI=1 MOERIx=1 NAtoms=    19 NAtomX=    19.
 Discarding MO integrals.
 MO basis two electron integral derivatives will not be stored on disk.
 IAlg= 3 DoFC=T DoPWx=T Debug=F.
 Reordered first order wavefunction length =     20072448
 In DefCFB: NBatch=  1 ICI= 33 ICA= 96 LFMax= 96
            Large arrays: LIAPS=   210874752 LIARS=   111567456 words.
 In StABat: MaxSiz= 39 MinSiz= 13 NAtomB=  4
 DoIAMN: NPSUse= 28.
 Leave Link  811 at Wed May 11 22:01:33 2022, MaxMem= 67108864000 cpu:            1313.0 elap:              47.1
 (Enter /cm/shared/apps/gaussian/intel/EM64T/SSE4_2-enabled/binary//g16/l804.exe)
 Closed-shell transformation, MDV= 67108864000 ITran=4 ISComp=1.
 Semi-Direct transformation.
 ModeAB=           4 MOrb=            33 LenV=   67108309226
 LASXX=     28702344 LTotXX=    28702344 LenRXX=    58192761
 LTotAB=    29490417 MaxLAS=    34903143 LenRXY=           0
 NonZer=    86895105 LenScr=   131092480 LnRSAI=    34903143
 LnScr1=    53129216 LExtra=           0 Total=    277317600
 MaxDsk=          -1 SrtSym=           T ITran=            4
 DoSDTr:  NPSUse= 28
 JobTyp=0 Pass  1:  I=   1 to  33.
 (rs|ai) integrals will be sorted in core.
 Complete sort for first half transformation.
 First half transformation complete.
 Begin second half transformation for I=  10.
 Begin second half transformation for I=  20.
 Begin second half transformation for I=  30.
 Complete sort for second half transformation.
 Second half transformation complete.
 SymMOI:  orbitals are not symmetric.
 Spin components of T(2) and E(2):
     alpha-alpha T2 =       0.3546219835D-01 E2=     -0.1144647998D+00
     alpha-beta  T2 =       0.2092601853D+00 E2=     -0.6879868192D+00
     beta-beta   T2 =       0.3546219835D-01 E2=     -0.1144647998D+00
 ANorm=    0.1600115360D+01
 E2 =    -0.9169164189D+00 EUMP2 =    -0.25437147119186D+03
 Leave Link  804 at Wed May 11 22:01:39 2022, MaxMem= 67108864000 cpu:             145.9 elap:               5.2
 (Enter /cm/shared/apps/gaussian/intel/EM64T/SSE4_2-enabled/binary//g16/l1002.exe)
 Minotr:  Closed shell wavefunction.
          Computing MP2/KS-MP2 derivatives.
          Using Z-Vector for PSCF gradient.
          Skipping F1 and S1 gradient terms here.
          IDoAtm=1111111111111111111
          Using MO integrals in the linear equations.
          Forming densities via direct SCF.
          Differentiating once with respect to electric field.
                with respect to dipole field.
          Differentiating once with respect to nuclear coordinates.
          Requested convergence is 1.0D-10 RMS, and 1.0D-09 maximum.
          NewPWx=F KeepS1=T KeepF1=T KeepIn=T MapXYZ=F SortEE=F KeepMc=T.
          MDV=   67108864000 using IRadAn=       5.
          Solving linear equations separately, MaxMat=       0.
          There are     1 degrees of freedom in the 1st order CPHF.  IDoFFX=0 NUNeed=     1.
 FoFJK:  IHMeth= 1 ICntrl=       0 DoSepK=F KAlg= 0 I1Cent=           0 FoldK=F
 IRaf=         0 NMat=       1 IRICut=       1 DoRegI=T DoRafI=F ISym2E= 0 IDoP0=0 IntGTp=1.
 FoFCou: FMM=F IPFlag=           0 FMFlag=      100000 FMFlg1=           0
         NFxFlg=           0 DoJE=F BraDBF=F KetDBF=F FulRan=T
         wScrn=  0.000000 ICntrl=         0 IOpCl=  0 I1Cent=           0 NGrid=           0
         NMat0=    1 NMatS0=      1 NMatT0=    0 NMatD0=    1 NMtDS0=    0 NMtDT0=    0
 Symmetry not used in FoFCou.
 LinEq1:  Iter=  0 NonCon=     1 RMS=6.29D-03 Max=7.60D-02 NDo=     1
 LinEq1:  Iter=  1 NonCon=     1 RMS=1.37D-03 Max=1.13D-02 NDo=     1
 LinEq1:  Iter=  2 NonCon=     1 RMS=4.24D-04 Max=5.75D-03 NDo=     1
 LinEq1:  Iter=  3 NonCon=     1 RMS=1.25D-04 Max=1.88D-03 NDo=     1
 LinEq1:  Iter=  4 NonCon=     1 RMS=4.03D-05 Max=6.63D-04 NDo=     1
 LinEq1:  Iter=  5 NonCon=     1 RMS=8.94D-06 Max=8.24D-05 NDo=     1
 LinEq1:  Iter=  6 NonCon=     1 RMS=4.06D-06 Max=5.01D-05 NDo=     1
 LinEq1:  Iter=  7 NonCon=     1 RMS=7.40D-07 Max=1.03D-05 NDo=     1
 LinEq1:  Iter=  8 NonCon=     1 RMS=1.75D-07 Max=1.78D-06 NDo=     1
 LinEq1:  Iter=  9 NonCon=     1 RMS=7.45D-08 Max=1.04D-06 NDo=     1
 LinEq1:  Iter= 10 NonCon=     1 RMS=1.41D-08 Max=1.57D-07 NDo=     1
 LinEq1:  Iter= 11 NonCon=     1 RMS=2.89D-09 Max=2.62D-08 NDo=     1
 LinEq1:  Iter= 12 NonCon=     1 RMS=1.26D-09 Max=1.28D-08 NDo=     1
 LinEq1:  Iter= 13 NonCon=     1 RMS=1.98D-10 Max=2.42D-09 NDo=     1
 LinEq1:  Iter= 14 NonCon=     0 RMS=3.17D-11 Max=3.82D-10 NDo=     1
 Linear equations converged to 1.000D-10 1.000D-09 after    14 iterations.
 End of Minotr F.D. properties file   721 does not exist.
 End of Minotr F.D. properties file   722 does not exist.
 End of Minotr F.D. properties file   788 does not exist.
 Leave Link 1002 at Wed May 11 22:01:41 2022, MaxMem= 67108864000 cpu:              66.3 elap:               2.4
 (Enter /cm/shared/apps/gaussian/intel/EM64T/SSE4_2-enabled/binary//g16/l1102.exe)
 Use density number 2.
 Symmetrizing basis deriv contribution to polar:
 IMax=3 JMax=2 DiffMx= 0.00D+00
 Leave Link 1102 at Wed May 11 22:01:41 2022, MaxMem= 67108864000 cpu:               0.6 elap:               0.0
 (Enter /cm/shared/apps/gaussian/intel/EM64T/SSE4_2-enabled/binary//g16/l1110.exe)
 Forming Gx(P) for generalized density number  2 NAtomX=    19.
 Integral derivatives from FoFJK, PRISM(SPDF).
 Do as many integral derivatives as possible in FoFJK.
 G2DrvN: MDV=   67108862496.
 G2DrvN: will do    20 centers at a time, making    1 passes.
 Calling FoFCou, ICntrl=  3107 FMM=F I1Cent=   0 AccDes= 0.00D+00.
 FoFJK:  IHMeth= 1 ICntrl=    3107 DoSepK=F KAlg= 0 I1Cent=           0 FoldK=F
 IRaf=         0 NMat=       1 IRICut=       1 DoRegI=T DoRafI=F ISym2E= 0 IDoP0=0 IntGTp=1.
 FoFCou: FMM=F IPFlag=           0 FMFlag=      100000 FMFlg1=           0
         NFxFlg=           0 DoJE=F BraDBF=F KetDBF=F FulRan=T
         wScrn=  0.000000 ICntrl=      3107 IOpCl=  0 I1Cent=           0 NGrid=           0
         NMat0=    1 NMatS0=      1 NMatT0=    0 NMatD0=    1 NMtDS0=    0 NMtDT0=    0
 Symmetry not used in FoFCou.
 End of G2Drv F.D. properties file   721 does not exist.
 End of G2Drv F.D. properties file   722 does not exist.
 End of G2Drv F.D. properties file   788 does not exist.
 Leave Link 1110 at Wed May 11 22:01:42 2022, MaxMem= 67108864000 cpu:              13.6 elap:               0.5
 (Enter /cm/shared/apps/gaussian/intel/EM64T/SSE4_2-enabled/binary//g16/l1112.exe)
 MP22nd: MDV=   67108864000
 This link is doing NAtomX=    19 total of    60 degrees of freedom.
 Using ON3 I/O method in MakUI.
 Using Ix for Sx.
 Using OV2 memory method for fx*t*t/D, MaxI=    33 DoOO2=F NP=  28.
 R2 and R3 integrals will be kept in memory, NReq=    71415045.
 FoFCou: FMM=F IPFlag=           0 FMFlag=           0 FMFlg1=           0
         NFxFlg=           0 DoJE=F BraDBF=F KetDBF=F FulRan=T
         wScrn=  0.000000 ICntrl=       600 IOpCl=  0 I1Cent=           0 NGrid=           0
         NMat0=    1 NMatS0=      1 NMatT0=    0 NMatD0=    1 NMtDS0=    0 NMtDT0=    0
 Symmetry not used in FoFCou.
 DD1Dir will call FoFMem   1 times, MxPair=      1122
 NAB=   561 NAA=     0 NBB=     0.
 Symmetry is being used.
 FoFJK:  IHMeth= 1 ICntrl=       0 DoSepK=F KAlg= 0 I1Cent=           0 FoldK=F
 IRaf=         0 NMat=      60 IRICut=     150 DoRegI=T DoRafI=T ISym2E= 2 IDoP0=0 IntGTp=1.
 Discarding MO integrals.
 Leave Link 1112 at Wed May 11 22:02:13 2022, MaxMem= 67108864000 cpu:             856.2 elap:              30.7
 (Enter /cm/shared/apps/gaussian/intel/EM64T/SSE4_2-enabled/binary//g16/l601.exe)
 Copying SCF densities to generalized density rwf, IOpCl= 0 IROHF=0.

 **********************************************************************

            Population analysis using the SCF density.

 **********************************************************************

 Orbital symmetries:
       Occupied  (A) (A) (A) (A) (A) (A) (A) (A) (A) (A) (A) (A)
                 (A) (A) (A) (A) (A) (A) (A) (A) (A) (A) (A) (A)
                 (A) (A) (A) (A) (A) (A) (A) (A) (A)
       Virtual   (A) (A) (A) (A) (A) (A) (A) (A) (A) (A) (A) (A)
                 (A) (A) (A) (A) (A) (A) (A) (A) (A) (A) (A) (A)
                 (A) (A) (A) (A) (A) (A) (A) (A) (A) (A) (A) (A)
                 (A) (A) (A) (A) (A) (A) (A) (A) (A) (A) (A) (A)
                 (A) (A) (A) (A) (A) (A) (A) (A) (A) (A) (A) (A)
                 (A) (A) (A) (A) (A) (A) (A) (A) (A) (A) (A) (A)
                 (A) (A) (A) (A) (A) (A) (A) (A) (A) (A) (A) (A)
                 (A) (A) (A) (A) (A) (A) (A) (A) (A) (A) (A) (A)
 The electronic state is 1-A.
 Alpha  occ. eigenvalues --   -5.40469  -3.40188  -3.40082  -3.39907  -1.69498
 Alpha  occ. eigenvalues --   -1.68264  -1.67395  -1.66311  -1.66159  -1.65301
 Alpha  occ. eigenvalues --   -1.06609  -1.05449  -1.04007  -1.02471  -1.01935
 Alpha  occ. eigenvalues --   -1.01677  -1.01160  -0.99745  -0.98206  -0.97405
 Alpha  occ. eigenvalues --   -0.97286  -0.93906  -0.92720  -0.89144  -0.87523
 Alpha  occ. eigenvalues --   -0.86223  -0.84718  -0.83383  -0.82352  -0.81950
 Alpha  occ. eigenvalues --   -0.81176  -0.80390  -0.79349
 Alpha virt. eigenvalues --   -0.25644  -0.16786  -0.16211  -0.15796  -0.15207
 Alpha virt. eigenvalues --   -0.10828  -0.09552  -0.08922  -0.07856  -0.07033
 Alpha virt. eigenvalues --   -0.04973  -0.04489  -0.03831  -0.02772  -0.02015
 Alpha virt. eigenvalues --   -0.01758  -0.01030   0.00093   0.01318   0.01777
 Alpha virt. eigenvalues --    0.02469   0.03152   0.03831   0.04021   0.04974
 Alpha virt. eigenvalues --    0.05999   0.07499   0.08070   0.08744   0.09837
 Alpha virt. eigenvalues --    0.10950   0.11029   0.12535   0.13655   0.14693
 Alpha virt. eigenvalues --    0.16331   0.17585   0.17933   0.19529   0.20164
 Alpha virt. eigenvalues --    0.20988   0.23094   0.24411   0.26527   0.37126
 Alpha virt. eigenvalues --    0.66262   0.68020   0.69805   0.73407   0.85818
 Alpha virt. eigenvalues --    1.00246   1.05283   1.06541   1.06988   1.07707
 Alpha virt. eigenvalues --    1.08707   1.09106   1.10438   1.11763   1.12501
 Alpha virt. eigenvalues --    1.12683   1.14483   1.15286   1.15685   1.16703
 Alpha virt. eigenvalues --    1.18025   1.18291   1.19522   1.19807   1.22599
 Alpha virt. eigenvalues --    1.22881   1.24295   1.25847   1.28985   1.30031
 Alpha virt. eigenvalues --    1.33305   1.35420   1.36825   1.37406   1.39692
 Alpha virt. eigenvalues --    1.40068   1.44472   1.46103   1.53018   2.21129
 Alpha virt. eigenvalues --    2.24391   2.38760   2.49226   2.79460   2.87784
 Alpha virt. eigenvalues --    4.27938  15.50696  41.66288  41.67945  41.75089
 Alpha virt. eigenvalues --   81.48397
          Condensed to atoms (all electrons):
               1          2          3          4          5          6
     1  Hg  18.393120  -0.005099   0.000587   0.000705   0.094481  -0.002844
     2  O   -0.005099   6.451422   0.263274   0.262534   0.000036   0.000002
     3  H    0.000587   0.263274   0.236798  -0.014943   0.000000  -0.000000
     4  H    0.000705   0.262534  -0.014943   0.239630  -0.000000  -0.000000
     5  O    0.094481   0.000036   0.000000  -0.000000   6.563715   0.178112
     6  H   -0.002844   0.000002  -0.000000  -0.000000   0.178112   0.150946
     7  H   -0.003162   0.000001  -0.000000   0.000000   0.243749  -0.009026
     8  O    0.082013  -0.030073   0.000196   0.000024  -0.000333   0.000015
     9  H   -0.003154   0.032852  -0.000604  -0.000642   0.000040   0.000000
    10  H   -0.002056   0.000830  -0.000021  -0.000002  -0.000150   0.000000
    11  O    0.033149   0.000078   0.000010  -0.000004  -0.007752   0.000077
    12  H   -0.002960   0.000004  -0.000000   0.000000   0.000235   0.000000
    13  H   -0.003457   0.000002   0.000000  -0.000000   0.000886   0.000001
    14  O    0.056106  -0.014018  -0.000057  -0.000054  -0.002603  -0.000094
    15  H   -0.002908   0.007236  -0.000042  -0.000076   0.000034  -0.000000
    16  H   -0.000541   0.000697  -0.000001  -0.000008  -0.000024   0.000004
    17  O    0.000455   0.000006  -0.000000  -0.000000  -0.047874   0.063711
    18  H    0.000471  -0.000000   0.000000  -0.000000   0.000975  -0.001699
    19  H    0.000486   0.000000  -0.000000  -0.000000   0.001274  -0.001698
               7          8          9         10         11         12
     1  Hg  -0.003162   0.082013  -0.003154  -0.002056   0.033149  -0.002960
     2  O    0.000001  -0.030073   0.032852   0.000830   0.000078   0.000004
     3  H   -0.000000   0.000196  -0.000604  -0.000021   0.000010  -0.000000
     4  H    0.000000   0.000024  -0.000642  -0.000002  -0.000004   0.000000
     5  O    0.243749  -0.000333   0.000040  -0.000150  -0.007752   0.000235
     6  H   -0.009026   0.000015   0.000000   0.000000   0.000077   0.000000
     7  H    0.244436  -0.000134   0.000000   0.000001   0.000137  -0.000000
     8  O   -0.000134   6.481208   0.213294   0.246570  -0.006380   0.000876
     9  H    0.000000   0.213294   0.179391  -0.010866   0.000111   0.000002
    10  H    0.000001   0.246570  -0.010866   0.235238   0.000191  -0.000002
    11  O    0.000137  -0.006380   0.000111   0.000191   6.404020   0.259063
    12  H   -0.000000   0.000876   0.000002  -0.000002   0.259063   0.242538
    13  H   -0.000000   0.000194   0.000000  -0.000000   0.259946  -0.014527
    14  O    0.000059  -0.010225  -0.000017   0.000206  -0.005485   0.000141
    15  H   -0.000000   0.000924  -0.000017   0.000001   0.000059  -0.000000
    16  H    0.000000  -0.000055   0.000014  -0.000000   0.000088  -0.000001
    17  O    0.000983   0.000016   0.000000   0.000001   0.000019   0.000001
    18  H   -0.000028   0.000000  -0.000000  -0.000000  -0.000002  -0.000000
    19  H   -0.000034   0.000000  -0.000000  -0.000000   0.000001  -0.000000
              13         14         15         16         17         18
     1  Hg  -0.003457   0.056106  -0.002908  -0.000541   0.000455   0.000471
     2  O    0.000002  -0.014018   0.007236   0.000697   0.000006  -0.000000
     3  H    0.000000  -0.000057  -0.000042  -0.000001  -0.000000   0.000000
     4  H   -0.000000  -0.000054  -0.000076  -0.000008  -0.000000  -0.000000
     5  O    0.000886  -0.002603   0.000034  -0.000024  -0.047874   0.000975
     6  H    0.000001  -0.000094  -0.000000   0.000004   0.063711  -0.001699
     7  H   -0.000000   0.000059  -0.000000   0.000000   0.000983  -0.000028
     8  O    0.000194  -0.010225   0.000924  -0.000055   0.000016   0.000000
     9  H    0.000000  -0.000017  -0.000017   0.000014   0.000000  -0.000000
    10  H   -0.000000   0.000206   0.000001  -0.000000   0.000001  -0.000000
    11  O    0.259946  -0.005485   0.000059   0.000088   0.000019  -0.000002
    12  H   -0.014527   0.000141  -0.000000  -0.000001   0.000001  -0.000000
    13  H    0.241758   0.000030  -0.000000  -0.000001   0.000001   0.000000
    14  O    0.000030   6.427855   0.243902   0.254882  -0.000671  -0.000006
    15  H   -0.000000   0.243902   0.217661  -0.013408  -0.000000   0.000000
    16  H   -0.000001   0.254882  -0.013408   0.241013   0.000013   0.000000
    17  O    0.000001  -0.000671  -0.000000   0.000013   6.373119   0.260523
    18  H    0.000000  -0.000006   0.000000   0.000000   0.260523   0.245331
    19  H   -0.000000   0.000011   0.000000   0.000000   0.262344  -0.014544
              19
     1  Hg   0.000486
     2  O    0.000000
     3  H   -0.000000
     4  H   -0.000000
     5  O    0.001274
     6  H   -0.001698
     7  H   -0.000034
     8  O    0.000000
     9  H   -0.000000
    10  H   -0.000000
    11  O    0.000001
    12  H   -0.000000
    13  H   -0.000000
    14  O    0.000011
    15  H    0.000000
    16  H    0.000000
    17  O    0.262344
    18  H   -0.014544
    19  H    0.239655
 Mulliken charges:
               1
     1  Hg   1.364607
     2  O   -0.969784
     3  H    0.514801
     4  H    0.512836
     5  O   -1.024803
     6  H    0.622493
     7  H    0.523018
     8  O   -0.978132
     9  H    0.589595
    10  H    0.530060
    11  O   -0.937326
    12  H    0.514630
    13  H    0.515168
    14  O   -0.949961
    15  H    0.546634
    16  H    0.517328
    17  O   -0.912649
    18  H    0.508978
    19  H    0.512504
 Sum of Mulliken charges =   2.00000
 Mulliken charges with hydrogens summed into heavy atoms:
               1
     1  Hg   1.364607
     2  O    0.057853
     5  O    0.120708
     8  O    0.141524
    11  O    0.092472
    14  O    0.114002
    17  O    0.108833
         Mulliken charges condensed to fragments:
      1      1.364607
      2      0.635393
 APT charges:
               1
     1  Hg   1.725032
     2  O   -0.758545
     3  H    0.379997
     4  H    0.376327
     5  O   -0.946486
     6  H    0.796963
     7  H    0.338510
     8  O   -0.842144
     9  H    0.583575
    10  H    0.361907
    11  O   -0.725337
    12  H    0.356753
    13  H    0.358103
    14  O   -0.781523
    15  H    0.442336
    16  H    0.357797
    17  O   -0.791237
    18  H    0.379547
    19  H    0.388426
 Sum of APT charges =   2.00000
 APT charges with hydrogens summed into heavy atoms:
               1
     1  Hg   1.725032
     2  O   -0.002220
     5  O    0.188987
     8  O    0.103339
    11  O   -0.010482
    14  O    0.018610
    17  O   -0.023264
         APT charges condensed to fragments:
      1      1.725032
      2      0.274968
 Electronic spatial extent (au):  <R**2>=           1624.1033
 Charge=              2.0000 electrons
 Dipole moment (field-independent basis, Debye):
    X=              0.8559    Y=              2.1871    Z=             -1.1235  Tot=              2.6035
 Quadrupole moment (field-independent basis, Debye-Ang):
   XX=             28.0400   YY=            -26.1586   ZZ=            -36.5781
   XY=              1.9053   XZ=              1.8378   YZ=             -2.9457
 Traceless Quadrupole moment (field-independent basis, Debye-Ang):
   XX=             39.6055   YY=            -14.5930   ZZ=            -25.0125
   XY=              1.9053   XZ=              1.8378   YZ=             -2.9457
 Octapole moment (field-independent basis, Debye-Ang**2):
  XXX=            -22.6763  YYY=            -34.4360  ZZZ=            -12.7417  XYY=             -1.2206
  XXY=            123.4945  XXZ=            -12.9705  XZZ=              4.5238  YZZ=            -11.5678
  YYZ=             14.1053  XYZ=              6.2888
 Hexadecapole moment (field-independent basis, Debye-Ang**3):
 XXXX=            120.4091 YYYY=           -320.2956 ZZZZ=           -163.4076 XXXY=            -47.4079
 XXXZ=              1.7633 YYYX=              0.2654 YYYZ=            -95.4962 ZZZX=             -6.5201
 ZZZY=             24.7975 XXYY=            -11.7931 XXZZ=           -161.8387 YYZZ=            -50.0226
 XXYZ=             -3.2375 YYXZ=             10.6268 ZZXY=              5.4339
 N-N= 3.508373098404D+02 E-N=-1.246650007258D+03  KE= 1.321134741634D+02
  Exact polarizability:  66.752  -0.270  53.463  -1.556   0.593  48.005
 Approx polarizability:  38.525  -0.039  33.698  -1.174   0.018  33.226
 No NMR shielding tensors so no spin-rotation constants.
 Leave Link  601 at Wed May 11 22:02:13 2022, MaxMem= 67108864000 cpu:               4.6 elap:               0.2
 (Enter /cm/shared/apps/gaussian/intel/EM64T/SSE4_2-enabled/binary//g16/l701.exe)
 ... and contract with generalized density number  2.
 Compute integral second derivatives.
   1 Symmetry operations used in ECPInt.
 ECPInt:  NShTT=    2346 NPrTT=    7709 LenC2=    2315 LenP2D=    6037.
 LDataN:  DoStor=T MaxTD1= 9 Len=  602
 Leave Link  701 at Wed May 11 22:02:14 2022, MaxMem= 67108864000 cpu:              38.7 elap:               1.4
 (Enter /cm/shared/apps/gaussian/intel/EM64T/SSE4_2-enabled/binary//g16/l702.exe)
 L702 exits ... SP integral derivatives will be done elsewhere.
 Leave Link  702 at Wed May 11 22:02:14 2022, MaxMem= 67108864000 cpu:               0.7 elap:               0.0
 (Enter /cm/shared/apps/gaussian/intel/EM64T/SSE4_2-enabled/binary//g16/l703.exe)
 Integral derivatives from FoFJK, PRISM(SPDF).
 Compute integral second derivatives, UseDBF=F ICtDFT=           0.
 Calling FoFJK, ICntrl=  10100127 FMM=F ISym2X=0 I1Cent= 0 IOpClX= 0 NMat=1 NMatS=1 NMatT=0.
 FoFJK:  IHMeth= 1 ICntrl=10100127 DoSepK=F KAlg= 0 I1Cent=           0 FoldK=F
 IRaf=         0 NMat=       1 IRICut=       1 DoRegI=T DoRafI=F ISym2E= 0 IDoP0=0 IntGTp=1.
 FoFCou: FMM=F IPFlag=           0 FMFlag=      100000 FMFlg1=         800
         NFxFlg=           0 DoJE=F BraDBF=F KetDBF=F FulRan=T
         wScrn=  0.000000 ICntrl=  10100127 IOpCl=  0 I1Cent=           0 NGrid=           0
         NMat0=    1 NMatS0=      1 NMatT0=    0 NMatD0=    1 NMtDS0=    0 NMtDT0=    0
 Symmetry not used in FoFCou.
 Leave Link  703 at Wed May 11 22:02:15 2022, MaxMem= 67108864000 cpu:              23.0 elap:               0.8
 (Enter /cm/shared/apps/gaussian/intel/EM64T/SSE4_2-enabled/binary//g16/l716.exe)
 Dipole        = 3.20359126D-01 8.88223265D-01-3.19848430D-01
 Polarizability= 6.67515933D+01-2.70325440D-01 5.34628619D+01
                -1.55561458D+00 5.93138704D-01 4.80048873D+01
 Full mass-weighted force constant matrix:
 Low frequencies --- -378.9107 -338.9148 -288.8426 -136.7305 -104.0361  -96.2942
 Low frequencies ---  -66.1120  -33.2714  -23.6159
 ******    7 imaginary frequencies (negative Signs) ****** 
 Diagonal vibrational polarizability:
      218.6444208     335.7902001     355.4325619
 Harmonic frequencies (cm**-1), IR intensities (KM/Mole), Raman scattering
 activities (A**4/AMU), depolarization ratios for plane and unpolarized
 incident light, reduced masses (AMU), force constants (mDyne/A),
 and normal coordinates:
                      1                      2                      3
                      A                      A                      A
 Frequencies --   -378.3985              -337.9601              -288.2634
 Red. masses --      1.0201                 1.0299                 1.0315
 Frc consts  --      0.0861                 0.0693                 0.0505
 IR Inten    --     12.2003                40.7990                29.7526
  Atom  AN      X      Y      Z        X      Y      Z        X      Y      Z
     1  80    -0.00   0.00  -0.00    -0.00   0.00  -0.00    -0.00   0.00  -0.00
     2   8    -0.00   0.00   0.01    -0.00  -0.00   0.01     0.00   0.02  -0.01
     3   1    -0.02   0.01   0.03     0.00  -0.00   0.01    -0.24   0.22   0.44
     4   1     0.01  -0.02  -0.01    -0.00   0.00   0.02     0.34  -0.34  -0.33
     5   8     0.00   0.00  -0.00    -0.00  -0.01   0.01     0.00   0.00   0.00
     6   1     0.00   0.00  -0.02    -0.02  -0.03   0.04     0.00   0.01   0.01
     7   1    -0.00  -0.03   0.02    -0.01  -0.01   0.02    -0.00   0.01  -0.00
     8   8    -0.00  -0.00   0.00     0.00   0.00   0.00     0.00  -0.02   0.01
     9   1     0.00  -0.01   0.03    -0.00   0.00   0.01     0.04  -0.07   0.09
    10   1    -0.00   0.03  -0.01     0.00   0.01  -0.00     0.01   0.04  -0.01
    11   8     0.03  -0.00  -0.00     0.00  -0.01  -0.01    -0.00  -0.00  -0.00
    12   1    -0.20  -0.35  -0.58    -0.02  -0.03  -0.06     0.01   0.01   0.02
    13   1    -0.03   0.36   0.59    -0.00   0.02   0.04     0.00  -0.03  -0.05
    14   8    -0.00   0.00   0.00     0.00  -0.01   0.01    -0.02  -0.00   0.01
    15   1    -0.01   0.01  -0.01     0.00  -0.00   0.00    -0.10   0.29  -0.25
    16   1     0.02  -0.03   0.01     0.01  -0.00   0.01     0.27  -0.32   0.10
    17   8    -0.00  -0.00  -0.01     0.01   0.02  -0.02     0.00  -0.00   0.01
    18   1     0.03   0.04   0.02    -0.45  -0.45  -0.31    -0.00   0.00   0.01
    19   1    -0.03  -0.03  -0.05     0.35   0.29   0.52     0.01   0.00   0.02
                      4                      5                      6
                      A                      A                      A
 Frequencies --   -129.8217               -99.3544               -77.0854
 Red. masses --      1.8846                 2.6418                 2.5857
 Frc consts  --      0.0187                 0.0154                 0.0091
 IR Inten    --     20.8746                 1.5557                17.3014
  Atom  AN      X      Y      Z        X      Y      Z        X      Y      Z
     1  80    -0.00   0.00   0.00    -0.00   0.00  -0.00    -0.01  -0.01  -0.01
     2   8     0.02  -0.06   0.07     0.04  -0.06   0.11    -0.07   0.09  -0.04
     3   1    -0.05   0.20   0.28    -0.12  -0.32   0.25     0.07   0.45  -0.09
     4   1     0.06  -0.26  -0.18     0.35  -0.07   0.25    -0.36   0.03  -0.26
     5   8    -0.00   0.01  -0.03    -0.03  -0.10   0.19    -0.01   0.01   0.12
     6   1     0.00  -0.00  -0.00    -0.02  -0.07   0.09     0.02   0.04   0.06
     7   1     0.02   0.05  -0.05    -0.12  -0.30   0.32    -0.10  -0.12   0.22
     8   8     0.01  -0.04   0.04    -0.03   0.10  -0.13     0.02  -0.04   0.12
     9   1     0.07  -0.12   0.16    -0.03   0.08  -0.08     0.03  -0.05   0.17
    10   1    -0.00   0.08   0.00    -0.10   0.22  -0.18     0.08  -0.02   0.12
    11   8     0.02  -0.04  -0.06     0.04  -0.01  -0.01     0.07  -0.10  -0.10
    12   1     0.05  -0.00  -0.09     0.05   0.00   0.03     0.14  -0.02  -0.15
    13   1     0.05  -0.08  -0.04     0.04  -0.02  -0.04     0.13  -0.18  -0.07
    14   8    -0.02   0.11  -0.15    -0.02   0.04  -0.05    -0.04  -0.00   0.03
    15   1     0.03  -0.09   0.04    -0.02   0.05  -0.05    -0.03  -0.04   0.12
    16   1    -0.33   0.64  -0.26    -0.04   0.10  -0.06    -0.15   0.07   0.00
    17   8    -0.01  -0.02   0.08     0.03   0.02  -0.09     0.10   0.14  -0.06
    18   1    -0.10  -0.01   0.12     0.24   0.00  -0.19     0.26   0.12  -0.15
    19   1     0.03  -0.09   0.12    -0.08   0.19  -0.19     0.01   0.29  -0.13
                      7                      8                      9
                      A                      A                      A
 Frequencies --    -59.2859                34.0256                61.7599
 Red. masses --      3.2162                 5.4205                 5.2211
 Frc consts  --      0.0067                 0.0037                 0.0117
 IR Inten    --     13.2713                10.2734                 7.9119
  Atom  AN      X      Y      Z        X      Y      Z        X      Y      Z
     1  80    -0.03   0.01   0.01    -0.01  -0.04  -0.06     0.01   0.04  -0.06
     2   8     0.03  -0.08   0.02    -0.07   0.04   0.15     0.06  -0.13   0.04
     3   1     0.01  -0.20   0.01    -0.12  -0.09   0.16     0.11  -0.07  -0.03
     4   1     0.11  -0.04   0.11     0.01   0.12   0.28    -0.04  -0.11   0.01
     5   8    -0.01   0.05  -0.11    -0.00   0.05  -0.01    -0.01  -0.02   0.24
     6   1    -0.02   0.04  -0.10     0.06   0.07   0.06    -0.05  -0.01   0.15
     7   1     0.04   0.09  -0.14    -0.05   0.12  -0.03    -0.14  -0.24   0.39
     8   8    -0.02  -0.04   0.00     0.02   0.05   0.05     0.04  -0.15   0.22
     9   1    -0.02  -0.03  -0.03    -0.05   0.10   0.05     0.04  -0.12   0.15
    10   1    -0.04  -0.06   0.00     0.09   0.01   0.07     0.15  -0.35   0.30
    11   8     0.31   0.01  -0.00     0.09   0.19   0.21     0.02   0.07   0.05
    12   1     0.52   0.26  -0.17     0.12   0.24   0.24     0.05   0.10   0.08
    13   1     0.52  -0.26   0.11     0.12   0.17   0.29     0.04   0.05   0.08
    14   8     0.03  -0.04   0.03    -0.15   0.01   0.02     0.03  -0.05   0.07
    15   1     0.02  -0.03  -0.02    -0.15   0.07   0.08     0.05  -0.08   0.15
    16   1     0.09  -0.11   0.05    -0.19  -0.11   0.02    -0.02  -0.11   0.07
    17   8    -0.03   0.02  -0.08     0.17   0.11   0.20    -0.20  -0.11   0.04
    18   1    -0.07   0.02  -0.06     0.13   0.14   0.25    -0.21  -0.12   0.04
    19   1    -0.02  -0.02  -0.07     0.22   0.11   0.27    -0.22  -0.19  -0.01
                     10                     11                     12
                      A                      A                      A
 Frequencies --     81.1344               113.2004               129.9598
 Red. masses --      6.2010                 4.5864                 1.6228
 Frc consts  --      0.0241                 0.0346                 0.0161
 IR Inten    --      2.9069                 7.0359                55.7195
  Atom  AN      X      Y      Z        X      Y      Z        X      Y      Z
     1  80     0.04  -0.05   0.00    -0.04  -0.03  -0.01    -0.01  -0.01  -0.01
     2   8    -0.03   0.03   0.01     0.25   0.15  -0.00     0.08   0.01   0.03
     3   1    -0.06   0.01   0.04     0.17  -0.18  -0.03     0.21   0.50   0.05
     4   1     0.00   0.03   0.03     0.44   0.24   0.21    -0.22  -0.17  -0.34
     5   8     0.02   0.34   0.11    -0.03   0.03   0.01    -0.01  -0.01  -0.01
     6   1    -0.00   0.35   0.11    -0.02   0.04   0.03    -0.01  -0.01  -0.02
     7   1    -0.06   0.36   0.12    -0.04   0.06   0.00    -0.01  -0.04   0.01
     8   8     0.00   0.07  -0.10     0.06   0.19   0.20    -0.01   0.06  -0.05
     9   1    -0.01   0.06  -0.03    -0.03   0.30   0.03     0.10  -0.11   0.26
    10   1    -0.04   0.21  -0.15     0.22  -0.10   0.31    -0.08   0.47  -0.18
    11   8     0.01  -0.02   0.01    -0.02  -0.05  -0.03    -0.00   0.06   0.06
    12   1     0.01  -0.02   0.05    -0.01  -0.04  -0.05     0.01   0.08   0.07
    13   1     0.01  -0.02  -0.00    -0.00  -0.04   0.02     0.01   0.05   0.06
    14   8    -0.07   0.05   0.01     0.16   0.03  -0.11     0.09  -0.08   0.05
    15   1    -0.07   0.08   0.02     0.14   0.09  -0.22     0.12  -0.17   0.18
    16   1    -0.09   0.07   0.00     0.30  -0.03  -0.07    -0.08   0.13  -0.00
    17   8    -0.33   0.15  -0.05    -0.02   0.02   0.03    -0.01  -0.01  -0.02
    18   1    -0.45   0.08  -0.07    -0.02   0.03   0.03    -0.01  -0.01  -0.02
    19   1    -0.31  -0.01  -0.07    -0.01   0.02   0.04    -0.02  -0.02  -0.03
                     13                     14                     15
                      A                      A                      A
 Frequencies --    151.4837               236.5481               271.3616
 Red. masses --      4.8034                 5.0919                 3.8959
 Frc consts  --      0.0649                 0.1679                 0.1690
 IR Inten    --      1.9439                 3.0203                10.0892
  Atom  AN      X      Y      Z        X      Y      Z        X      Y      Z
     1  80    -0.00   0.01   0.00     0.00  -0.03   0.02    -0.01  -0.02  -0.01
     2   8    -0.19   0.17   0.20     0.06   0.01   0.00    -0.11  -0.05   0.06
     3   1    -0.21   0.18   0.23     0.08  -0.01  -0.05     0.02  -0.01  -0.12
     4   1    -0.18   0.19   0.22     0.02   0.05   0.04    -0.28   0.02   0.05
     5   8    -0.02   0.01   0.03    -0.08  -0.08   0.01     0.06   0.06   0.03
     6   1    -0.01   0.02   0.02    -0.08  -0.14   0.15     0.08   0.15  -0.11
     7   1    -0.06  -0.02   0.06     0.00   0.20  -0.16     0.00  -0.15   0.16
     8   8     0.04  -0.15  -0.08     0.07  -0.06  -0.01    -0.08  -0.00   0.02
     9   1     0.00  -0.14  -0.16     0.05  -0.04  -0.02    -0.07  -0.03   0.14
    10   1     0.04  -0.24  -0.05     0.07  -0.03  -0.02    -0.14   0.20  -0.05
    11   8     0.00   0.03   0.00    -0.01   0.36  -0.31    -0.01   0.05  -0.08
    12   1    -0.00   0.03   0.03    -0.02   0.35  -0.26     0.01   0.09  -0.04
    13   1    -0.00   0.04   0.00    -0.02   0.40  -0.27     0.01   0.04  -0.05
    14   8     0.24  -0.14  -0.19    -0.05   0.01   0.02     0.17   0.29   0.11
    15   1     0.24  -0.19  -0.34    -0.05   0.04   0.01     0.16   0.22  -0.06
    16   1     0.36  -0.08  -0.17    -0.01  -0.08   0.04     0.46  -0.04   0.20
    17   8    -0.03   0.03   0.01    -0.06   0.03   0.04     0.08  -0.08  -0.04
    18   1    -0.02   0.03   0.01     0.15  -0.06  -0.14    -0.12   0.03   0.15
    19   1    -0.04   0.02  -0.01    -0.17   0.30  -0.04     0.21  -0.33   0.06
                     16                     17                     18
                      A                      A                      A
 Frequencies --    274.2941               287.0251               332.4748
 Red. masses --      1.3712                 2.2198                 2.2589
 Frc consts  --      0.0608                 0.1077                 0.1471
 IR Inten    --     82.2994                26.5199                27.3363
  Atom  AN      X      Y      Z        X      Y      Z        X      Y      Z
     1  80     0.00  -0.00  -0.01     0.01  -0.00   0.00    -0.01  -0.01  -0.01
     2   8    -0.06  -0.03  -0.00    -0.13  -0.05  -0.08     0.08   0.15  -0.01
     3   1    -0.09  -0.02   0.05    -0.39  -0.16   0.25    -0.13  -0.00   0.24
     4   1    -0.01  -0.07  -0.04     0.27  -0.21  -0.11     0.43   0.04   0.01
     5   8    -0.01  -0.04  -0.02     0.01   0.01  -0.00    -0.00   0.01   0.00
     6   1    -0.08  -0.15   0.29     0.05   0.05  -0.13    -0.01   0.01  -0.01
     7   1     0.13   0.43  -0.30    -0.02  -0.16   0.10    -0.00  -0.01   0.01
     8   8    -0.04   0.03   0.03    -0.04   0.13   0.07    -0.00  -0.13  -0.08
     9   1    -0.04   0.04   0.02    -0.09   0.22  -0.07    -0.03  -0.06  -0.28
    10   1     0.00  -0.03   0.05     0.07  -0.16   0.18    -0.01  -0.38  -0.01
    11   8     0.02  -0.03   0.04    -0.01   0.07  -0.05    -0.00  -0.01   0.02
    12   1    -0.02  -0.07   0.04     0.00   0.08  -0.01    -0.00  -0.00   0.06
    13   1    -0.02   0.01   0.01     0.01   0.08   0.02    -0.00   0.02   0.08
    14   8     0.07   0.05   0.03     0.08  -0.12   0.04     0.03   0.05   0.16
    15   1     0.08  -0.00   0.03     0.08  -0.16   0.12     0.06  -0.05   0.26
    16   1     0.06   0.12   0.03    -0.19   0.44  -0.07    -0.22   0.54   0.06
    17   8    -0.04  -0.01   0.04     0.02   0.02  -0.03     0.01  -0.01  -0.01
    18   1     0.34  -0.18  -0.29    -0.14   0.07   0.09     0.01  -0.01  -0.02
    19   1    -0.25   0.46  -0.10     0.09  -0.18   0.01     0.01  -0.01  -0.01
                     19                     20                     21
                      A                      A                      A
 Frequencies --    343.9561               412.9918               422.9780
 Red. masses --      3.9147                 1.8887                 2.2460
 Frc consts  --      0.2729                 0.1898                 0.2368
 IR Inten    --     82.7947                24.0197                92.7231
  Atom  AN      X      Y      Z        X      Y      Z        X      Y      Z
     1  80     0.02  -0.00  -0.00    -0.01   0.00  -0.00    -0.02   0.00   0.00
     2   8    -0.03  -0.02   0.00    -0.05  -0.02  -0.04    -0.04  -0.05  -0.03
     3   1    -0.02  -0.02  -0.02    -0.12  -0.16   0.00    -0.07  -0.03   0.03
     4   1    -0.05  -0.01   0.00     0.09   0.01   0.06    -0.02  -0.05  -0.01
     5   8    -0.18  -0.21  -0.11     0.01   0.03  -0.00    -0.05   0.02   0.02
     6   1    -0.08  -0.19  -0.33    -0.03  -0.01   0.05    -0.02   0.09   0.01
     7   1    -0.21  -0.47   0.03    -0.06  -0.06   0.08     0.00   0.13  -0.05
     8   8     0.05   0.01  -0.00     0.19  -0.01  -0.02     0.23   0.01  -0.03
     9   1     0.03   0.02   0.02     0.09   0.07   0.04     0.16   0.06   0.00
    10   1     0.07   0.03  -0.01     0.06   0.33  -0.15     0.23   0.09  -0.05
    11   8     0.00  -0.05   0.04    -0.11  -0.00   0.03     0.10  -0.02   0.01
    12   1     0.04   0.00   0.04     0.23   0.38  -0.38    -0.26  -0.44   0.36
    13   1     0.03  -0.09   0.07     0.25  -0.45   0.27    -0.29   0.42  -0.33
    14   8     0.06   0.10   0.07     0.02   0.01   0.02     0.01   0.02   0.03
    15   1     0.06   0.09   0.01     0.01   0.03   0.02     0.02  -0.10  -0.00
    16   1     0.14  -0.00   0.09    -0.02   0.08   0.01     0.04   0.09   0.03
    17   8    -0.14   0.23   0.05     0.01  -0.03   0.02     0.03  -0.02  -0.03
    18   1    -0.34   0.36   0.26     0.12  -0.07  -0.07    -0.03   0.02   0.04
    19   1    -0.04   0.00   0.12    -0.05   0.11  -0.02     0.07  -0.09   0.01
                     22                     23                     24
                      A                      A                      A
 Frequencies --    459.0621               469.9590               545.0113
 Red. masses --      1.3269                 1.4078                 3.8787
 Frc consts  --      0.1647                 0.1832                 0.6788
 IR Inten    --     85.4124                78.6122                16.0305
  Atom  AN      X      Y      Z        X      Y      Z        X      Y      Z
     1  80     0.00   0.00  -0.00     0.00   0.00  -0.00    -0.03   0.00  -0.00
     2   8    -0.02   0.06  -0.04    -0.00   0.01   0.00     0.00  -0.01   0.00
     3   1    -0.10  -0.33  -0.07    -0.00  -0.01   0.00     0.00   0.04   0.02
     4   1     0.25   0.10   0.14     0.01   0.01   0.01    -0.05   0.02   0.02
     5   8     0.01  -0.01  -0.00    -0.09  -0.06   0.09     0.35  -0.14   0.04
     6   1     0.01  -0.01  -0.01     0.07   0.10   0.07     0.37  -0.18   0.05
     7   1     0.02   0.00  -0.02     0.25   0.62  -0.37     0.48   0.15  -0.16
     8   8    -0.03  -0.08   0.08    -0.00  -0.00  -0.00     0.06   0.00  -0.02
     9   1    -0.11  -0.05   0.23    -0.01   0.00   0.01     0.07  -0.01  -0.04
    10   1    -0.34   0.67  -0.22    -0.00   0.03  -0.01     0.03  -0.02  -0.02
    11   8     0.03  -0.00  -0.00    -0.02  -0.00   0.02    -0.01  -0.01  -0.04
    12   1    -0.07  -0.12   0.06     0.06   0.07  -0.22     0.02   0.06   0.25
    13   1    -0.08   0.09  -0.16     0.07  -0.16  -0.00     0.02   0.09   0.25
    14   8     0.01  -0.03  -0.00     0.00  -0.01  -0.00    -0.02   0.00   0.01
    15   1    -0.01   0.10   0.02     0.00   0.02   0.03    -0.02  -0.04  -0.10
    16   1    -0.06   0.09  -0.03    -0.03  -0.02  -0.01     0.10   0.07   0.03
    17   8    -0.01   0.02   0.01     0.04   0.02  -0.06    -0.06   0.16   0.04
    18   1    -0.02   0.02   0.01    -0.26   0.09   0.14    -0.32  -0.00  -0.03
    19   1    -0.01  -0.00  -0.00     0.15  -0.40  -0.02    -0.12  -0.24  -0.15
                     25                     26                     27
                      A                      A                      A
 Frequencies --    570.0914               598.3969               650.1989
 Red. masses --      1.2136                 1.1199                 1.1701
 Frc consts  --      0.2324                 0.2363                 0.2915
 IR Inten    --    347.2983               116.9594               405.0214
  Atom  AN      X      Y      Z        X      Y      Z        X      Y      Z
     1  80     0.00   0.00  -0.00    -0.00   0.00   0.00    -0.00  -0.00  -0.00
     2   8     0.00  -0.01  -0.00    -0.02   0.02   0.01    -0.00   0.00  -0.00
     3   1     0.02  -0.00  -0.02     0.01  -0.11  -0.08    -0.01   0.00   0.01
     4   1    -0.03   0.03   0.03     0.11  -0.15  -0.15     0.01  -0.00  -0.00
     5   8    -0.06   0.01   0.00     0.00   0.00   0.00     0.04  -0.01   0.02
     6   1    -0.04   0.03   0.01    -0.01  -0.00  -0.01    -0.08  -0.06  -0.05
     7   1    -0.01   0.08  -0.05     0.04   0.01  -0.02     0.19   0.06  -0.07
     8   8     0.00  -0.00   0.01     0.01  -0.01  -0.02     0.01   0.00   0.00
     9   1     0.03  -0.03   0.01    -0.11   0.07   0.04     0.01   0.00  -0.01
    10   1    -0.09   0.09  -0.03     0.13  -0.00   0.00    -0.02   0.00  -0.00
    11   8    -0.01  -0.04  -0.08     0.00  -0.02  -0.03    -0.00  -0.00  -0.00
    12   1     0.10   0.19   0.61     0.02   0.04   0.21     0.01   0.02   0.02
    13   1     0.08   0.16   0.65     0.01   0.07   0.19     0.01   0.00   0.04
    14   8    -0.02  -0.02   0.01     0.05   0.02  -0.04    -0.00  -0.00  -0.00
    15   1    -0.04  -0.03  -0.18     0.07   0.25   0.50     0.01  -0.04   0.02
    16   1     0.16   0.15   0.04    -0.47  -0.48  -0.12    -0.02  -0.01  -0.01
    17   8     0.02  -0.02  -0.01     0.00  -0.00   0.00    -0.05  -0.05  -0.06
    18   1     0.02  -0.02  -0.01    -0.02  -0.02  -0.02     0.18   0.52   0.42
    19   1     0.02  -0.02  -0.00    -0.00  -0.02  -0.01     0.23   0.44   0.45
                     28                     29                     30
                      A                      A                      A
 Frequencies --    690.6066               788.0946               840.6590
 Red. masses --      1.1208                 1.1136                 1.0897
 Frc consts  --      0.3150                 0.4075                 0.4537
 IR Inten    --    193.3327               470.6605               252.3376
  Atom  AN      X      Y      Z        X      Y      Z        X      Y      Z
     1  80     0.00  -0.00   0.00    -0.00   0.00   0.00    -0.00  -0.00  -0.00
     2   8     0.02  -0.03  -0.06     0.02  -0.04  -0.04    -0.00  -0.02   0.02
     3   1    -0.23   0.31   0.45    -0.10   0.19   0.23     0.07   0.10  -0.03
     4   1    -0.05   0.29   0.34    -0.16   0.32   0.36    -0.13   0.01  -0.00
     5   8    -0.00  -0.00  -0.00    -0.00   0.00   0.00    -0.00  -0.00  -0.00
     6   1    -0.00   0.01  -0.00    -0.03  -0.01  -0.03     0.00   0.00   0.01
     7   1    -0.01   0.00  -0.00     0.06  -0.02  -0.01    -0.02   0.01  -0.00
     8   8     0.00   0.00   0.03    -0.03  -0.01  -0.03     0.04   0.02   0.02
     9   1     0.13  -0.03  -0.15    -0.08  -0.06   0.27     0.19   0.01  -0.34
    10   1    -0.32   0.04  -0.04     0.46   0.05   0.04    -0.60  -0.16  -0.03
    11   8    -0.00  -0.00  -0.01     0.00  -0.00  -0.00     0.00   0.00   0.00
    12   1     0.00   0.01   0.04    -0.00  -0.00   0.02    -0.01  -0.03  -0.03
    13   1     0.00   0.01   0.03    -0.00   0.01   0.01    -0.01   0.01  -0.03
    14   8     0.01   0.04  -0.02     0.02  -0.03   0.00     0.03  -0.03   0.00
    15   1     0.10  -0.36   0.19    -0.09   0.53  -0.03    -0.10   0.61  -0.00
    16   1    -0.10  -0.33  -0.01    -0.10   0.16  -0.04    -0.13   0.13  -0.05
    17   8     0.00   0.00   0.00     0.00  -0.00   0.00    -0.00  -0.00   0.00
    18   1    -0.01  -0.02  -0.01     0.01   0.01   0.01     0.00   0.01   0.01
    19   1    -0.01  -0.01  -0.01     0.00   0.01   0.01     0.00   0.00   0.00
                     31                     32                     33
                      A                      A                      A
 Frequencies --    903.8687              1096.1390              1357.9912
 Red. masses --      1.0749                 1.0618                 1.0523
 Frc consts  --      0.5174                 0.7516                 1.1434
 IR Inten    --    116.9711               237.1852               197.1079
  Atom  AN      X      Y      Z        X      Y      Z        X      Y      Z
     1  80    -0.00  -0.00  -0.00    -0.00  -0.00  -0.00    -0.00   0.00   0.00
     2   8    -0.00   0.00   0.00    -0.02   0.02  -0.01     0.00  -0.00  -0.00
     3   1     0.01  -0.00  -0.01    -0.03  -0.20  -0.09     0.00   0.00  -0.00
     4   1     0.00  -0.02  -0.02     0.12   0.03   0.06    -0.00   0.00  -0.00
     5   8    -0.03   0.04   0.03    -0.00   0.00   0.00    -0.02  -0.03   0.01
     6   1    -0.35  -0.03  -0.34     0.00   0.01  -0.01     0.62   0.54  -0.48
     7   1     0.78  -0.31  -0.10     0.01  -0.01  -0.00     0.06   0.02  -0.05
     8   8     0.01   0.00   0.00    -0.02   0.04  -0.01    -0.00  -0.00  -0.00
     9   1     0.00   0.02  -0.03     0.67  -0.61   0.29    -0.01   0.01  -0.00
    10   1    -0.05  -0.01  -0.00     0.00  -0.14   0.06     0.00   0.00  -0.00
    11   8    -0.00   0.00   0.00    -0.00   0.00  -0.00    -0.00  -0.00   0.00
    12   1     0.00   0.00  -0.02     0.00   0.00  -0.00     0.00   0.00  -0.00
    13   1    -0.00  -0.01  -0.02     0.01  -0.01   0.00     0.00  -0.00  -0.00
    14   8    -0.00  -0.00  -0.00     0.01   0.00   0.00     0.00  -0.00   0.00
    15   1    -0.00  -0.03  -0.02     0.01  -0.00   0.03     0.00   0.00  -0.00
    16   1     0.03  -0.00   0.01    -0.07  -0.04  -0.01    -0.00   0.00  -0.00
    17   8     0.01   0.01   0.03    -0.00   0.00   0.00    -0.02  -0.02   0.02
    18   1     0.01  -0.11  -0.10     0.00  -0.00  -0.00     0.15  -0.09  -0.11
    19   1    -0.07   0.01  -0.07    -0.00   0.00   0.00    -0.05   0.20   0.05
                     34                     35                     36
                      A                      A                      A
 Frequencies --   1717.0655              1725.4880              1735.1073
 Red. masses --      1.0899                 1.0890                 1.0821
 Frc consts  --      1.8932                 1.9103                 1.9194
[...]
 2,0.00106965,-0.06633150,0.02197986,0.11471526,0.00660238,-0.01879017,
 -0.03832988,0.05947199,-0.00034457,0.00129005,-0.00011788,0.00030914,-
 0.06297481,-0.10110724,0.00406584,-0.00550739,-0.03789580,-0.00523854,
 0.06644006,0.00081665,0.00001831,-0.00022198,0.06917484,-0.13673171,-0
 .42468809,0.01317263,-0.00161231,-0.01652230,-0.08394729,0.13821111,0.
 44307228,-0.06297081,-0.05205458,0.03174108,0.00001207,-0.00087859,0.0
 0055772,0.00002778,0.00018484,-0.00003607,0.00003550,0.00012625,-0.000
 18018,0.52823168,-0.03276844,-0.05472576,0.02662255,-0.00166251,0.0008
 4175,0.00029508,0.00031038,-0.00006702,0.00001981,0.00017882,-0.000273
 79,-0.00015993,-0.07296160,0.37115624,0.00967506,0.01017443,-0.0148910
 4,0.00059119,-0.00017290,0.00006494,-0.00008755,-0.00001365,-0.0001056
 8,-0.00014082,-0.00002420,0.00001157,0.14584919,-0.03868998,0.11381949
 ,0.00619411,-0.00933985,0.00145600,-0.00044333,0.00045511,-0.00007981,
 0.00007477,-0.00007313,0.00001831,0.00004872,-0.00012233,0.00001221,-0
 .06886301,-0.00127781,-0.01047554,0.08729895,-0.02019120,-0.01055943,0
 .00003465,0.00153140,-0.00040386,-0.00048317,-0.00031490,0.00001306,-0
 .00000551,-0.00021631,0.00022356,0.00019866,0.03664270,-0.16067779,-0.
 00165801,-0.01413654,0.14673725,0.00135071,0.00493922,0.00108313,0.000
 02270,-0.00012201,-0.00005301,-0.00000101,0.00002150,0.00003248,0.0000
 4762,0.00006385,0.00001595,-0.00106023,-0.02917544,-0.03718276,0.00805
 636,0.00371847,0.06514662,-0.00871755,-0.00162794,-0.00349530,0.000417
 55,-0.00005759,-0.00009275,-0.00007176,-0.00002784,-0.00001567,-0.0000
 6445,-0.00000265,0.00005075,-0.39887136,0.09936354,-0.14780481,-0.0059
 5842,-0.00091272,-0.00815745,0.41140241,-0.01076266,0.00119848,0.00047
 025,0.00016650,-0.00028397,0.00009298,-0.00002409,0.00005220,-0.000016
 77,-0.00000760,0.00006930,-0.00002297,0.07299806,-0.07441883,0.0283070
 2,0.03662500,0.00515594,0.01761648,-0.09660266,0.07658290,0.00579380,0
 .00306125,0.00162421,-0.00009006,0.00009200,-0.00012135,0.00000827,-0.
 00000722,0.00004245,0.00004723,0.00000928,0.00004000,-0.16798648,0.047
 12398,-0.07594422,0.00255997,-0.00564797,0.00318772,0.15904084,-0.0431
 4883,0.07110985,-0.03103354,-0.01335559,0.00483308,-0.03001163,0.01170
 785,0.01080997,0.00014244,0.00230590,0.00213729,-0.00420285,-0.0006461
 8,-0.00282040,0.00096639,-0.00715319,0.00254014,-0.00186661,0.00406279
 ,0.00060275,0.00136306,0.00066868,-0.00031287,0.52608094,-0.03046149,-
 0.05186674,0.01500028,0.00626170,0.00726211,-0.00226278,0.00238021,-0.
 00218097,-0.00081570,0.00035939,-0.00071756,0.00027044,0.00307040,0.00
 058514,0.00245982,-0.00000245,0.00193010,0.00014188,0.00137995,0.00039
 342,-0.00029069,-0.16813379,0.21682779,0.02653745,0.03165182,-0.021778
 98,0.01331095,-0.00356662,0.00571363,0.00058752,-0.00186085,-0.0020724
 3,-0.00133330,0.00101066,0.00113991,-0.00443671,0.00015854,0.00025330,
 0.00033729,-0.00128849,-0.00007661,-0.00075722,-0.00065854,0.00031193,
 0.03074012,-0.17241889,0.36050370,0.00139653,-0.01200588,0.01124888,0.
 00467817,-0.01383846,-0.00447368,-0.00424890,-0.00031578,-0.00209747,0
 .00502532,0.00198034,0.00302881,-0.00001678,0.00304037,-0.00110453,0.0
 0086438,-0.00258672,-0.00009111,-0.00070539,-0.00033388,0.00012294,-0.
 26434663,0.05799164,0.07868302,0.27710973,-0.01308966,0.00295481,0.003
 79268,-0.00367988,-0.01357953,-0.00337611,-0.00650495,0.00417490,0.002
 16372,0.00081320,0.00048245,-0.00014724,0.00075184,-0.00193505,0.00051
 032,-0.00062225,0.00090524,0.00020023,0.00027534,0.00026325,-0.0001072
 4,0.04655839,-0.04941225,0.00394707,-0.04834882,0.05950105,0.00540956,
 0.00262673,-0.00201964,-0.00980915,0.00018154,-0.01698070,-0.00237359,
 0.00245010,0.00375189,0.00684099,-0.00288370,-0.00084419,-0.00033889,-
 0.00055665,0.00031358,-0.00009183,0.00060971,0.00003800,0.00014209,0.0
 0002402,0.00001314,0.13128481,-0.01240482,-0.10438454,-0.09344850,0.00
 069135,0.10767652,0.00276268,-0.00391237,0.00175521,-0.00163333,0.0000
 3489,0.00276422,-0.00045713,0.00025170,-0.00014988,-0.00113980,0.00055
 819,-0.00002995,0.00031543,0.00029762,0.00014194,0.00010696,-0.0000121
 1,-0.00001948,0.00019278,-0.00016178,0.00010692,-0.19987283,0.12067071
 ,-0.13882285,-0.01596530,0.01905122,-0.03630713,0.21459573,0.00140487,
 -0.00491586,0.00794966,-0.00104215,-0.00004834,-0.00038809,-0.00011646
 ,0.00040987,-0.00006040,0.00057963,0.00014078,-0.00000246,0.00110046,0
 .00157165,-0.00062020,0.00029115,-0.00094175,-0.00004013,-0.00027840,0
 .00009639,0.00010375,0.12644334,-0.11746110,0.13756959,0.00651377,0.00
 016228,0.00943976,-0.13559805,0.12164731,-0.00276731,0.00214687,-0.001
 56639,0.00239505,-0.00064077,-0.00160831,0.00013007,0.00015163,0.00008
 704,0.00080815,-0.00027148,0.00007317,-0.00040488,-0.00093838,0.000334
 07,-0.00020260,0.00064908,0.00005992,0.00010035,0.00003044,0.00007003,
 -0.18284892,0.16275661,-0.23391993,0.01343438,-0.00951575,0.01152457,0
 .16893140,-0.15410760,0.22572200,-0.00867077,-0.00002553,0.00233155,0.
 00036093,-0.00012498,0.00048813,0.00006540,0.00004970,-0.00037935,-0.0
 0010000,-0.00001084,-0.00007481,0.00000501,-0.00371374,-0.00117637,-0.
 00114095,0.00238136,-0.00009051,0.00005289,0.00030799,0.00058749,0.001
 97883,-0.00020823,0.00090765,-0.00080775,0.00017955,-0.00046194,-0.000
 49783,-0.00005896,0.00053659,0.27078113,-0.00206739,-0.01326157,-0.009
 73462,-0.00022106,0.00068102,-0.00004127,0.00012182,-0.00017938,-0.000
 11839,-0.00003481,-0.00016629,0.00002511,-0.00307490,-0.00330108,-0.00
 157430,-0.00071392,0.00197390,0.00011512,0.00006151,-0.00102275,-0.000
 05287,-0.00000647,0.00201703,0.00073032,0.00025905,-0.00048318,-0.0001
 6209,0.00016613,-0.00045322,-0.00033964,0.18873762,0.53992001,-0.00228
 788,-0.00590499,-0.02383866,0.00151035,-0.00035575,-0.00014376,-0.0002
 6704,-0.00004315,-0.00019478,-0.00017979,0.00007600,0.00010598,-0.0027
 8880,-0.00542350,0.00083825,-0.00137633,0.00316061,-0.00054635,0.00053
 489,-0.00053142,-0.00020735,0.00299531,0.00271382,-0.00461986,-0.00264
 879,0.00093717,-0.00004184,0.00090946,-0.00019870,-0.00020815,-0.23081
 142,0.00043274,0.34949698,0.00263551,-0.00094318,-0.00216884,-0.000343
 09,-0.00009412,-0.00029125,-0.00006590,0.00004908,0.00032847,0.0000593
 5,0.00003252,0.00004609,-0.00000541,0.00047297,0.00015264,0.00015650,-
 0.00053723,-0.00002870,0.00001978,-0.00014093,-0.00011576,-0.00156822,
 -0.00025976,0.00001133,0.00074159,-0.00001153,0.00045209,0.00026391,-0
 .00008681,-0.00031398,-0.05243815,-0.09201863,0.01477502,0.05680793,-0
 .00005060,-0.00074646,-0.00132292,-0.00003901,-0.00017416,0.00012782,-
 0.00001713,0.00011815,-0.00001634,-0.00000139,0.00004147,-0.00002306,0
 .00012379,0.00062391,0.00012189,0.00006266,-0.00030333,-0.00002828,-0.
 00001597,-0.00008716,-0.00007062,-0.00017837,-0.00085284,0.00022654,0.
 00009697,0.00009010,-0.00006396,-0.00007103,0.00027011,0.00020755,-0.1
 3420358,-0.45482753,-0.02831275,0.13139148,0.46948535,-0.00092918,-0.0
 0610675,0.00133101,-0.00053868,0.00040483,0.00013418,0.00018829,-0.000
 07797,-0.00004350,0.00002877,-0.00009604,-0.00004001,-0.00101159,-0.00
 085389,-0.00050720,-0.00018363,0.00014031,0.00002454,-0.00008905,-0.00
 030344,0.00002736,-0.00033064,0.00186276,0.00107912,0.00081960,-0.0003
 5431,-0.00041019,0.00009205,-0.00015680,-0.00048470,-0.00130039,-0.073
 63077,-0.04728825,-0.01329931,0.04012559,0.04244761,0.00259284,0.00043
 581,-0.00054654,0.00001123,0.00001105,-0.00009195,-0.00000288,-0.00001
 459,0.00006051,0.00001668,0.00000204,0.00002913,-0.00114059,0.00059661
 ,0.00083289,0.00024819,-0.00059335,0.00008542,0.00007488,-0.00046156,-
 0.00058978,0.00013096,0.00031634,-0.00068650,0.00000577,0.00004797,-0.
 00000165,0.00013129,0.00003739,-0.00008537,-0.21119243,-0.09190720,0.2
 1728967,-0.00541704,0.00276244,0.01636673,0.21493370,0.00242978,0.0037
 7566,-0.00096224,0.00020007,-0.00016018,-0.00003954,-0.00005434,0.0000
 3272,0.00001080,-0.00001334,0.00005146,0.00001148,-0.00054719,-0.00067
 368,0.00159673,-0.00021978,-0.00011301,-0.00047024,-0.00001797,0.00005
 085,-0.00019230,0.00018629,0.00023182,-0.00082622,-0.00030450,0.000158
 41,0.00007918,0.00009654,0.00012485,0.00001743,-0.05211059,-0.06971299
 ,0.03636623,-0.03848938,-0.01376552,0.03922869,0.08845274,0.08045830,0
 .00411665,-0.00012045,-0.00331808,-0.00014637,0.00002359,0.00002787,0.
 00004664,-0.00000984,0.00000529,0.00003250,-0.00000797,-0.00000974,-0.
 00048988,0.00156900,0.00072568,0.00034145,-0.00143282,0.00011414,-0.00
 016691,-0.00041874,-0.00033541,-0.00035606,0.00034249,-0.00044252,0.00
 020794,-0.00001646,-0.00008492,0.00021916,0.00003682,-0.00019955,0.229
 12179,0.08484129,-0.27261644,0.00017235,-0.01091240,0.00394947,-0.2327
 2010,-0.07450964,0.27221545,-0.03217048,0.00634428,0.00626615,0.003748
 70,-0.00599765,0.00503768,0.00026641,0.00151334,-0.00009057,-0.0005694
 6,-0.00026308,-0.00109910,-0.00593046,-0.00138918,-0.00014327,-0.00035
 320,0.00385828,-0.00019096,0.00018560,-0.00109387,0.00091493,0.0023948
 5,0.00647945,-0.00535982,-0.00583145,0.00148454,0.00100407,0.00120378,
 0.00059953,0.00029208,0.00057209,0.00117130,0.00224028,-0.00083280,-0.
 00006500,0.00010689,-0.00013892,0.00032203,-0.00029803,0.40333135,0.00
 645017,-0.00824227,0.00013161,-0.00440145,-0.00293471,0.00741840,0.000
 89030,-0.00004869,0.00057403,-0.00025628,-0.00253870,-0.00006633,-0.00
 015506,0.00110012,0.00016615,0.00136769,-0.00234161,-0.00009273,-0.000
 25747,-0.00024675,-0.00012809,0.00335996,-0.00476241,0.00329805,-0.000
 14685,0.00133060,-0.00175045,-0.00137037,-0.00061185,-0.00000536,0.001
 40540,0.00050351,-0.00163038,-0.00037912,0.00022724,0.00042501,-0.0000
 7451,-0.00076654,0.00000638,0.07240008,0.24652666,-0.00194921,0.001278
 08,-0.01117953,0.00389431,0.00963385,-0.00228297,-0.00020236,0.0004231
 3,-0.00240837,-0.00028640,-0.00056438,0.00090521,0.00077618,0.00038036
 ,0.00129508,-0.00033043,-0.00049020,-0.00042382,0.00002541,0.00022760,
 -0.00016880,-0.00200597,0.00352452,0.00069448,0.00157241,-0.00226660,-
 0.00107856,0.00049064,0.00024304,-0.00001354,0.00180186,-0.00122309,0.
 00005287,-0.00018936,0.00038486,-0.00042604,-0.00031987,-0.00010790,-0
 .00007193,0.04079672,-0.27784639,0.48532168,-0.00707135,-0.00164825,0.
 00341336,-0.00847067,0.00354497,-0.00331021,-0.00008746,-0.00319692,0.
 00157429,0.00106141,-0.00042974,0.00172577,-0.00037994,0.00016229,-0.0
 0013132,-0.00002110,-0.00025776,0.00000855,-0.00015937,-0.00010587,0.0
 0010114,-0.00045398,-0.00127192,0.00087183,0.00282485,0.00290782,-0.00
 231464,-0.00025079,0.00011370,-0.00006871,0.00025591,-0.00004312,-0.00
 045778,-0.00003821,0.00011921,0.00013409,-0.00004299,-0.00008405,0.000
 02153,-0.22184436,-0.15926133,0.14385520,0.22104558,0.00110578,0.00658
 110,-0.00355867,-0.00160847,-0.00044965,-0.00657320,-0.00090240,-0.001
 49374,0.00060935,0.00075545,0.00337678,-0.00000869,0.00153068,-0.00032
 848,0.00012150,-0.00030739,-0.00009147,0.00008684,0.00008165,0.0003729
 0,-0.00013348,-0.00393834,-0.00100652,0.00153106,0.00675179,-0.0042080
 5,0.00152300,-0.00005649,-0.00018627,0.00012865,-0.00019170,-0.0008624
 6,-0.00000152,0.00036100,0.00001811,-0.00040150,0.00001017,0.00013505,
 -0.00001088,-0.13215473,-0.15117963,0.13461235,0.14426265,0.15450839,0
 .00500196,-0.00310619,0.00359103,0.00022657,-0.01046155,-0.00479164,0.
 00017504,-0.00052813,0.00354763,0.00073666,0.00337420,-0.00292378,-0.0
 0119625,-0.00020793,-0.00015595,0.00027319,0.00061129,0.00002333,0.000
 01603,-0.00021314,0.00020569,0.00239114,0.00077135,-0.00293803,-0.0053
 8176,0.00325137,0.00267406,0.00008806,0.00035736,0.00001335,-0.0008041
 9,0.00027806,0.00012733,0.00029684,-0.00027007,0.00001630,0.00011001,0
 .00003858,-0.00003133,0.09372850,0.11302896,-0.13798070,-0.12387795,-0
 .13431552,0.15778334,-0.00186263,0.00157564,-0.00545316,-0.00110094,-0
 .00185854,0.00091821,0.00012248,-0.00046264,0.00040353,0.00006225,-0.0
 0003372,0.00009456,-0.00041943,-0.00030486,0.00049193,-0.00055287,0.00
 015959,-0.00024560,-0.00008245,0.00000538,0.00007981,-0.00023497,0.001
 32278,-0.00048764,-0.00044122,0.00004338,-0.00002568,0.00026302,0.0002
 0698,-0.00000209,0.00044595,-0.00072001,0.00018490,0.00007700,0.000128
 79,-0.00010124,-0.00015537,0.00016584,0.00003813,-0.14425704,0.0810313
 4,-0.18811807,0.01364023,-0.01573412,0.02830989,0.13419457,0.00446284,
 0.00101320,0.00176519,-0.00084624,-0.00097890,-0.00032731,-0.00017397,
 -0.00037986,0.00073931,-0.00009470,0.00017422,0.00011452,-0.00037007,-
 0.00146030,0.00014640,-0.00072268,0.00147593,-0.00004132,0.00008072,0.
 00000424,0.00004715,-0.00013709,-0.00036872,-0.00003550,0.00020289,0.0
 0001817,0.00044387,0.00004306,-0.00018574,0.00000959,-0.00126639,0.000
 06940,0.00019731,0.00043047,-0.00025352,-0.00008424,0.00012828,0.00026
 555,-0.00004252,0.04827222,-0.07686391,0.13145349,0.01512352,-0.005176
 63,0.02766143,-0.06552224,0.08324829,-0.00025291,0.00027426,0.00269487
 ,0.00067815,-0.00010429,0.00040172,-0.00008695,0.00038525,-0.00015748,
 -0.00010917,0.00022633,-0.00012667,0.00064691,0.00003038,-0.00041128,-
 0.00001629,-0.00024598,0.00029071,-0.00000371,0.00010540,-0.00001191,0
 .00038706,-0.00164429,0.00056011,0.00012434,0.00031249,-0.00015270,-0.
 00017472,-0.00013229,0.00011187,-0.00072083,0.00045958,-0.00096794,0.0
 0017144,-0.00016572,0.00018779,0.00030858,-0.00028335,0.00006259,-0.14
 325395,0.15635675,-0.33234633,-0.02154392,0.00641213,-0.01919450,0.163
 81819,-0.16208502,0.34916534,-0.00492054,0.00068485,-0.00010817,0.0002
 9571,-0.00043452,0.00012369,-0.00005241,0.00010074,-0.00002892,-0.0000
 4294,0.00015290,-0.00005075,0.01081143,0.01356603,0.00021131,-0.019978
 16,-0.01101829,0.00000429,0.00062083,-0.00251851,0.00022590,0.00091784
 ,-0.00004690,-0.00012762,-0.00054554,0.00033749,0.00006998,-0.00013700
 ,-0.00011008,0.00009760,0.00068220,0.00025748,0.00048648,-0.00015845,-
 0.00002982,0.00005526,-0.00027878,0.00001156,-0.00022410,0.00067538,-0
 .00164762,0.00022753,0.00004856,0.00029549,-0.00018338,0.00053437,0.00
 108169,0.00004000,0.10275097,0.01048843,0.00506576,-0.00089029,-0.0008
 0107,0.00016723,0.00028026,0.00017066,-0.00000442,-0.00000061,0.000126
 29,-0.00011193,-0.00010683,0.00889124,-0.06913666,-0.00073197,0.001472
 01,0.01061452,0.00156312,-0.00170640,-0.00563434,-0.00033407,-0.002068
 09,-0.00086121,0.00063652,0.00134693,-0.00045695,-0.00032469,0.0000039
 5,0.00050753,-0.00032576,-0.00133216,-0.00118570,-0.00159669,0.0002985
 9,0.00019577,-0.00011866,0.00031163,0.00013319,0.00073756,-0.00191224,
 0.00079924,0.00042237,0.00016179,0.00007151,-0.00039128,0.00017737,-0.
 00064039,0.00008388,0.13066735,0.42074741,-0.00019641,-0.00113236,-0.0
 0132705,0.00004656,0.00008754,0.00008565,-0.00001213,-0.00001686,-0.00
 004728,-0.00006455,-0.00007864,-0.00002216,0.00047836,-0.00065686,0.01
 414075,-0.00106870,0.00258783,-0.03896653,0.00097211,-0.00206965,-0.00
 036853,-0.00004490,0.00010343,0.00011222,-0.00002585,-0.00008918,-0.00
 006453,-0.00000681,-0.00007751,-0.00005205,0.00003829,-0.00014464,0.00
 043517,0.00000810,0.00003349,-0.00005347,-0.00004202,0.00032542,-0.000
 08808,0.00003101,0.00027244,0.00052416,-0.00001075,-0.00008048,-0.0000
 9799,0.00021025,0.00008039,-0.00036069,-0.01371066,0.01442259,0.694890
 67,0.00103462,-0.00024846,-0.00034152,-0.00007090,0.00019373,-0.000027
 72,0.00001158,-0.00005149,-0.00000087,-0.00000188,-0.00009752,0.000023
 30,-0.00074119,0.00184914,-0.00057316,0.00185359,0.00080694,0.00298500
 ,0.00004277,0.00092909,0.00007215,-0.00019406,0.00012242,0.00003544,0.
 00013224,-0.00011899,-0.00003113,0.00006851,-0.00001567,-0.00001982,-0
 .00014385,-0.00003400,0.00003551,0.00004897,-0.00000082,-0.00001920,0.
 00007062,0.00004235,0.00003013,-0.00022955,0.00065624,0.00017632,-0.00
 002977,-0.00016751,0.00000959,-0.00004708,-0.00031840,-0.00014388,-0.0
 4262303,-0.07478089,-0.09925154,0.03295564,-0.00037755,-0.00080142,-0.
 00054746,0.00012079,0.00003330,-0.00002916,-0.00002887,-0.00000838,-0.
 00000718,-0.00004540,-0.00001079,0.00001319,0.00228923,-0.00468713,0.0
 0290288,-0.00641278,0.00400224,-0.01184035,0.00040706,-0.00183163,-0.0
 0058933,0.00015188,0.00015409,-0.00002524,-0.00016231,0.00000070,0.000
 02609,0.00000209,-0.00008102,0.00001024,0.00007093,0.00007686,0.000159
 05,-0.00002881,-0.00001715,-0.00001342,-0.00002187,-0.00000604,-0.0000
 4053,0.00021878,0.00007735,0.00007342,-0.00005422,-0.00005179,0.000043
 10,-0.00004247,0.00002501,-0.00005712,-0.06537354,-0.19373675,-0.21470
 462,0.06897648,0.18406260,-0.00080807,-0.00021773,0.00059768,0.0000347
 5,-0.00004254,-0.00009166,-0.00000399,0.00000620,0.00002761,0.00003285
 ,0.00005225,0.00003323,-0.00032413,0.00628581,-0.00085483,0.00076354,-
 0.00728874,0.00362440,-0.00028381,0.00022745,0.00025290,0.00018057,0.0
 0003139,-0.00013436,-0.00009315,0.00007632,0.00006703,0.00000640,0.000
 00598,0.00006350,0.00012440,0.00014062,0.00000551,-0.00002831,-0.00002
 664,0.00003322,-0.00003144,-0.00009704,-0.00003579,0.00016198,-0.00008
 461,-0.00029134,0.00000433,0.00001824,0.00012737,-0.00009839,-0.000040
 07,0.00010140,-0.06706056,-0.16467243,-0.32431045,0.08177640,0.1970214
 0,0.35480909,0.00093753,-0.00005854,0.00043181,-0.00008155,0.00012647,
 -0.00007004,0.00001706,-0.00003832,0.00002303,0.00002444,-0.00003805,0
 .00002775,-0.00106635,0.00139357,0.00115107,0.00233148,0.00133407,-0.0
 0327835,0.00025820,0.00051270,-0.00056643,-0.00018999,0.00002957,-0.00
 001095,0.00013040,-0.00007466,0.00000055,0.00004992,0.00001574,-0.0000
 1198,-0.00020862,0.00006659,-0.00014405,0.00005673,-0.00001260,0.00001
 122,0.00015284,-0.00006605,0.00005320,-0.00022045,0.00038888,-0.000214
 91,-0.00002655,-0.00009350,0.00008004,-0.00018587,-0.00037389,0.000131
 68,-0.04860044,-0.07151539,0.11264962,0.00786276,0.00031058,-0.0143533
 7,0.03875846,-0.00039058,-0.00029292,0.00036967,0.00009412,0.00000400,
 -0.00006014,-0.00002431,-0.00000267,0.00000915,-0.00001717,0.00001113,
 0.00001870,0.00233252,-0.00419324,-0.00302194,-0.00632271,0.00240052,0
 .01334379,-0.00014217,-0.00071446,0.00026532,0.00017206,0.00008881,-0.
 00007983,-0.00014054,0.00003308,0.00005104,0.00000611,-0.00004559,0.00
 003665,0.00011417,0.00021441,-0.00004407,-0.00004660,-0.00004255,0.000
 01060,-0.00003940,-0.00021990,-0.00003487,0.00021192,-0.00002764,-0.00
 015850,-0.00004276,-0.00002916,0.00007811,-0.00013852,0.00001396,0.000
 07164,-0.06597631,-0.16653381,0.20113767,0.00225737,0.01279994,-0.0313
 9585,0.06809283,0.15653610,0.00080556,0.00065983,0.00053522,-0.0000822
 8,-0.00002601,-0.00001154,0.00001829,0.00000911,0.00002332,0.00003153,
 0.00002366,0.00000163,0.00020464,-0.00582293,-0.00174372,0.00000684,0.
 00683030,0.00360815,-0.00001575,0.00028186,0.00027228,-0.00018249,-0.0
 0014162,-0.00000116,0.00012252,-0.00000982,0.00000301,0.00000536,0.000
 07821,-0.00000689,-0.00011795,-0.00000114,-0.00038874,0.00002114,-0.00
 001496,0.00002275,0.00003228,-0.00018608,0.00013330,-0.00014459,-0.000
 07344,-0.00012156,0.00000518,0.00004082,0.00000448,-0.00001752,-0.0000
 0266,0.00015309,0.07995211,0.15134697,-0.34442982,0.01526501,0.0276050
 3,-0.03402452,-0.09590989,-0.18059714,0.37597073\\0.01006205,0.0016643
 3,0.01097931,0.00233708,0.00310028,-0.00413959,0.00356803,0.00541060,0
 .00987954,-0.00320167,-0.00829010,-0.00770440,0.00115865,-0.00621840,-
 0.01572224,0.00608625,0.00476520,0.00893673,-0.00985013,0.00387349,0.0
 0469252,-0.00071905,-0.01311428,-0.01270824,0.00368215,0.00261423,0.00
 852659,-0.00612211,0.01036500,0.00138019,-0.00801080,0.00192846,-0.007
 68069,0.00981470,0.00724137,-0.00326534,-0.00316015,-0.01055924,0.0059
 6553,-0.00055588,0.01424405,0.00587326,-0.00039089,-0.00003293,-0.0101
 4075,-0.00176960,-0.01137887,0.00617126,-0.01451188,-0.00384896,-0.001
 70775,0.00609837,-0.00173248,-0.01033445,0.00548488,-0.00003175,0.0109
 9852\\\@


 I WANT IT ALL - RICH, THIN, AND CHOCOLATE.
 Job cpu time:       0 days  0 hours 51 minutes  7.2 seconds.
 Elapsed time:       0 days  0 hours  1 minutes 50.7 seconds.
 File lengths (MBytes):  RWF=   2793 Int=      0 D2E=      0 Chk=      3 Scr=      1
 Normal termination of Gaussian 16 at Wed May 11 22:02:16 2022.
