 Entering Gaussian System, Link 0=g16
 Initial command:
 /cm/shared/apps/gaussian/intel/EM64T/SSE4_2-enabled/binary//g16/l1.exe "/scratch/florez/25750/Gau-1803.inp" -scrdir="/scratch/florez/25750/"
 Entering Link 1 = /cm/shared/apps/gaussian/intel/EM64T/SSE4_2-enabled/binary//g16/l1.exe PID=      1806.
  
 Copyright (c) 1988,1990,1992,1993,1995,1998,2003,2009,2016,
            Gaussian, Inc.  All Rights Reserved.
  
 This is part of the Gaussian(R) 16 program.  It is based on
 the Gaussian(R) 09 system (copyright 2009, Gaussian, Inc.),
 the Gaussian(R) 03 system (copyright 2003, Gaussian, Inc.),
 the Gaussian(R) 98 system (copyright 1998, Gaussian, Inc.),
 the Gaussian(R) 94 system (copyright 1995, Gaussian, Inc.),
 the Gaussian 92(TM) system (copyright 1992, Gaussian, Inc.),
 the Gaussian 90(TM) system (copyright 1990, Gaussian, Inc.),
 the Gaussian 88(TM) system (copyright 1988, Gaussian, Inc.),
 the Gaussian 86(TM) system (copyright 1986, Carnegie Mellon
 University), and the Gaussian 82(TM) system (copyright 1983,
 Carnegie Mellon University). Gaussian is a federally registered
 trademark of Gaussian, Inc.
  
 This software contains proprietary and confidential information,
 including trade secrets, belonging to Gaussian, Inc.
  
 This software is provided under written license and may be
 used, copied, transmitted, or stored only in accord with that
 written license.
  
 The following legend is applicable only to US Government
 contracts under FAR:
  
                    RESTRICTED RIGHTS LEGEND
  
 Use, reproduction and disclosure by the US Government is
 subject to restrictions as set forth in subparagraphs (a)
 and (c) of the Commercial Computer Software - Restricted
 Rights clause in FAR 52.227-19.
  
 Gaussian, Inc.
 340 Quinnipiac St., Bldg. 40, Wallingford CT 06492
  
  
 ---------------------------------------------------------------
 Warning -- This program may not be used in any manner that
 competes with the business of Gaussian, Inc. or will provide
 assistance to any competitor of Gaussian, Inc.  The licensee
 of this program is prohibited from giving any competitor of
 Gaussian, Inc. access to this program.  By using this program,
 the user acknowledges that Gaussian, Inc. is engaged in the
 business of creating and licensing software in the field of
 computational chemistry and represents and warrants to the
 licensee that it is not a competitor of Gaussian, Inc. and that
 it will not use this program in any manner prohibited above.
 ---------------------------------------------------------------
  

 Cite this work as:
 Gaussian 16, Revision A.03,
 M. J. Frisch, G. W. Trucks, H. B. Schlegel, G. E. Scuseria, 
 M. A. Robb, J. R. Cheeseman, G. Scalmani, V. Barone, 
 G. A. Petersson, H. Nakatsuji, X. Li, M. Caricato, A. V. Marenich, 
 J. Bloino, B. G. Janesko, R. Gomperts, B. Mennucci, H. P. Hratchian, 
 J. V. Ortiz, A. F. Izmaylov, J. L. Sonnenberg, D. Williams-Young, 
 F. Ding, F. Lipparini, F. Egidi, J. Goings, B. Peng, A. Petrone, 
 T. Henderson, D. Ranasinghe, V. G. Zakrzewski, J. Gao, N. Rega, 
 G. Zheng, W. Liang, M. Hada, M. Ehara, K. Toyota, R. Fukuda, 
 J. Hasegawa, M. Ishida, T. Nakajima, Y. Honda, O. Kitao, H. Nakai, 
 T. Vreven, K. Throssell, J. A. Montgomery, Jr., J. E. Peralta, 
 F. Ogliaro, M. J. Bearpark, J. J. Heyd, E. N. Brothers, K. N. Kudin, 
 V. N. Staroverov, T. A. Keith, R. Kobayashi, J. Normand, 
 K. Raghavachari, A. P. Rendell, J. C. Burant, S. S. Iyengar, 
 J. Tomasi, M. Cossi, J. M. Millam, M. Klene, C. Adamo, R. Cammi, 
 J. W. Ochterski, R. L. Martin, K. Morokuma, O. Farkas, 
 J. B. Foresman, and D. J. Fox, Gaussian, Inc., Wallingford CT, 2016.
 
 ******************************************
 Gaussian 16:  ES64L-G16RevA.03 25-Dec-2016
                11-May-2022 
 ******************************************
 %chk=w6s16.chk
 %nproc=28
 Will use up to   28 processors via shared memory.
 %mem=500gb
 ------------------------
 #p MP2(full) SDDAll freq
 ------------------------
 1/10=4,30=1,38=1/1,3;
 2/12=2,17=6,18=5,40=1/2;
 3/5=17,6=6,11=9,25=1,30=1,71=2,140=1/1,2,3;
 4//1;
 5/5=2,38=5,98=1/2;
 8/6=3,8=1,10=90,19=11/1;
 9/15=3,16=-3/6;
 11/6=1,8=1,15=11,17=11,24=-1,27=1,28=-2,29=300,32=6,42=3/1,2,10;
 10/6=2,21=1/2;
 8/6=4,8=1,10=90,19=11/11,4;
 10/5=1,20=4/2;
 11/12=2,14=11,16=1,28=-2,42=3/2,10,12;
 6/7=2,8=2,9=2,10=2/1;
 7/8=1,10=1,12=2,25=1,44=2/1,2,3,16;
 1/10=4,30=1/3;
 99//99;
 Leave Link    1 at Wed May 11 22:05:55 2022, MaxMem= 67108864000 cpu:               1.0 elap:               0.0
 (Enter /cm/shared/apps/gaussian/intel/EM64T/SSE4_2-enabled/binary//g16/l101.exe)
 ----------------------------------------------------------------------
 file 'w6s16.log' Now we use Def2-QZVPPD, but it was opt at: ---'ZORA-S
 R+SO PBE QZ4P'---
 ----------------------------------------------------------------------
 Symbolic Z-matrix:
 Charge =  2 Multiplicity = 1
 Hg(Fragment=1)       -0.183    -0.43785   0.2737 
 H(Fragment=2)         4.15191  -1.46703   1.00346 
 O(Fragment=2)         3.53408  -1.55861   0.25737 
 H(Fragment=2)         4.05256  -1.90458  -0.49027 
 H(Fragment=2)         2.52023  -0.58209  -0.01107 
 O(Fragment=2)         1.71754   0.06385  -0.27413 
 H(Fragment=2)         1.93318   1.05599  -0.18076 
 H(Fragment=2)        -2.06027  -1.83161   1.43245 
 O(Fragment=2)        -2.05762  -1.16607   0.71841 
 H(Fragment=2)        -2.76743  -1.4652   -0.08543 
 H(Fragment=2)         2.59574   3.1014    0.49184 
 O(Fragment=2)         2.02999   2.66036  -0.16785 
 H(Fragment=2)         2.26317   3.07255  -1.02043 
 H(Fragment=2)        -0.0064    2.60374   0.24487 
 O(Fragment=2)        -0.74762   1.97118   0.3307 
 H(Fragment=2)        -1.46193   2.42586   0.80801 
 H(Fragment=2)        -4.48688  -1.24389  -1.055 
 O(Fragment=2)        -3.63344  -1.71473  -1.07682 
 H(Fragment=2)        -3.82046  -2.63697  -1.3309 
 
 ITRead=  0  0  0  0  0  0  0  0  0  0  0  0  0  0  0  0  0  0  0
 MicOpt= -1 -1 -1 -1 -1 -1 -1 -1 -1 -1 -1 -1 -1 -1 -1 -1 -1 -1 -1
 NAtoms=     19 NQM=       19 NQMF=       0 NMMI=      0 NMMIF=      0
                NMic=       0 NMicF=      0.
                    Isotopes and Nuclear Properties:
 (Nuclear quadrupole moments (NQMom) in fm**2, nuclear magnetic moments (NMagM)
  in nuclear magnetons)

  Atom         1           2           3           4           5           6           7           8           9          10
 IAtWgt=         202           1          16           1           1          16           1           1          16           1
 AtmWgt= 201.9706000   1.0078250  15.9949146   1.0078250   1.0078250  15.9949146   1.0078250   1.0078250  15.9949146   1.0078250
 NucSpn=           0           1           0           1           1           0           1           1           0           1
 AtZEff=  -0.0000000  -0.0000000  -0.0000000  -0.0000000  -0.0000000  -0.0000000  -0.0000000  -0.0000000  -0.0000000  -0.0000000
 NQMom=    0.0000000   0.0000000   0.0000000   0.0000000   0.0000000   0.0000000   0.0000000   0.0000000   0.0000000   0.0000000
 NMagM=    0.0000000   2.7928460   0.0000000   2.7928460   2.7928460   0.0000000   2.7928460   2.7928460   0.0000000   2.7928460
 AtZNuc=  80.0000000   1.0000000   8.0000000   1.0000000   1.0000000   8.0000000   1.0000000   1.0000000   8.0000000   1.0000000

  Atom        11          12          13          14          15          16          17          18          19
 IAtWgt=           1          16           1           1          16           1           1          16           1
 AtmWgt=   1.0078250  15.9949146   1.0078250   1.0078250  15.9949146   1.0078250   1.0078250  15.9949146   1.0078250
 NucSpn=           1           0           1           1           0           1           1           0           1
 AtZEff=  -0.0000000  -0.0000000  -0.0000000  -0.0000000  -0.0000000  -0.0000000  -0.0000000  -0.0000000  -0.0000000
 NQMom=    0.0000000   0.0000000   0.0000000   0.0000000   0.0000000   0.0000000   0.0000000   0.0000000   0.0000000
 NMagM=    2.7928460   0.0000000   2.7928460   2.7928460   0.0000000   2.7928460   2.7928460   0.0000000   2.7928460
 AtZNuc=   1.0000000   8.0000000   1.0000000   1.0000000   8.0000000   1.0000000   1.0000000   8.0000000   1.0000000
 Leave Link  101 at Wed May 11 22:05:55 2022, MaxMem= 67108864000 cpu:               3.0 elap:               0.1
 (Enter /cm/shared/apps/gaussian/intel/EM64T/SSE4_2-enabled/binary//g16/l103.exe)

 GradGradGradGradGradGradGradGradGradGradGradGradGradGradGradGradGradGrad
 Berny optimization.
 Initialization pass.
 Trust Radius=3.00D-01 FncErr=1.00D-07 GrdErr=1.00D-07 EigMax=2.50D+02 EigMin=1.00D-04
 Number of steps in this run=      2 maximum allowed number of steps=      2.
 GradGradGradGradGradGradGradGradGradGradGradGradGradGradGradGradGradGrad

 Leave Link  103 at Wed May 11 22:05:55 2022, MaxMem= 67108864000 cpu:               0.7 elap:               0.0
 (Enter /cm/shared/apps/gaussian/intel/EM64T/SSE4_2-enabled/binary//g16/l202.exe)
                          Input orientation:                          
 ---------------------------------------------------------------------
 Center     Atomic      Atomic             Coordinates (Angstroms)
 Number     Number       Type             X           Y           Z
 ---------------------------------------------------------------------
      1         80           0       -0.182996   -0.437853    0.273697
      2          1           0        4.151912   -1.467034    1.003461
      3          8           0        3.534075   -1.558606    0.257365
      4          1           0        4.052559   -1.904582   -0.490271
      5          1           0        2.520234   -0.582088   -0.011073
      6          8           0        1.717536    0.063846   -0.274125
      7          1           0        1.933175    1.055989   -0.180756
      8          1           0       -2.060265   -1.831606    1.432454
      9          8           0       -2.057623   -1.166070    0.718408
     10          1           0       -2.767425   -1.465203   -0.085432
     11          1           0        2.595741    3.101402    0.491838
     12          8           0        2.029992    2.660363   -0.167853
     13          1           0        2.263172    3.072553   -1.020431
     14          1           0       -0.006402    2.603741    0.244873
     15          8           0       -0.747618    1.971182    0.330698
     16          1           0       -1.461931    2.425863    0.808009
     17          1           0       -4.486883   -1.243894   -1.055003
     18          8           0       -3.633436   -1.714733   -1.076818
     19          1           0       -3.820457   -2.636969   -1.330900
 ---------------------------------------------------------------------
                    Distance matrix (angstroms):
                    1          2          3          4          5
     1  Hg   0.000000
     2  H    4.514775   0.000000
     3  O    3.882392   0.973020   0.000000
     4  H    4.546962   1.559665   0.973388   0.000000
     5  H    2.722012   2.115368   1.433011   2.080058   0.000000
     6  O    2.040547   3.146745   2.492919   3.061660   1.063368
     7  H    2.629880   3.562416   3.096924   3.654117   1.748350
     8  H    2.609483   6.237635   5.722937   6.408495   4.962463
     9  O    2.059683   6.223356   5.624387   6.272211   4.672253
    10  H    2.804228   7.004493   6.311508   6.846103   5.361414
    11  H    4.505029   4.853250   4.759320   5.305349   3.718430
    12  O    3.832913   4.786432   4.499197   5.003344   3.283048
    13  H    4.470062   5.317079   4.969466   5.315529   3.800169
    14  H    3.046853   5.868410   5.464455   6.110694   4.074175
    15  O    2.474974   6.023233   5.549565   6.223924   4.161112
    16  H    3.181514   6.834331   6.413991   7.130770   5.057302
    17  H    4.575870   8.883459   8.133703   8.583560   7.115298
    18  O    3.919164   8.062292   7.292300   7.710681   6.347153
    19  H    4.543343   8.389080   7.600960   7.951568   6.794766
                    6          7          8          9         10
     6  O    0.000000
     7  H    1.019591   0.000000
     8  H    4.558172   5.185385   0.000000
     9  O    4.092632   4.655374   0.976118   0.000000
    10  H    4.742201   5.334898   1.714148   1.113310   0.000000
    11  H    3.253412   2.252796   6.848191   6.317946   7.067579
    12  O    2.617408   1.607344   6.282433   5.668831   6.327898
    13  H    3.147540   2.209181   6.982802   6.297520   6.839032
    14  H    3.113260   2.517669   5.030010   4.317779   4.928352
    15  O    3.175016   2.878509   4.171104   3.421810   4.007683
    16  H    4.105989   3.792223   4.344419   3.642096   4.200351
    17  H    6.388644   6.875385   3.524390   3.008712   1.986349
    18  O    5.695662   6.282276   2.963945   2.450929   1.339808
    19  H    6.251443   6.932896   3.373872   3.077465   2.008259
                   11         12         13         14         15
    11  H    0.000000
    12  O    0.974566   0.000000
    13  H    1.548674   0.975276   0.000000
    14  H    2.660791   2.078569   2.640406   0.000000
    15  O    3.532904   2.904934   3.478998   0.978212   0.000000
    16  H    4.125654   3.633294   4.199737   1.570773   0.972010
    17  H    8.452093   7.648524   8.012250   6.047205   5.122400
    18  O    8.028604   7.214021   7.595477   5.792362   4.888253
    19  H    8.798799   7.977604   8.348986   6.670466   5.782586
                   16         17         18         19
    16  H    0.000000
    17  H    5.107667   0.000000
    18  O    5.041085   0.974955   0.000000
    19  H    5.980790   1.568726   0.974707   0.000000
 Stoichiometry    H12HgO6(2+)
 Framework group  C1[X(H12HgO6)]
 Deg. of freedom    51
 Full point group                 C1      NOp   1
 Largest Abelian subgroup         C1      NOp   1
 Largest concise Abelian subgroup C1      NOp   1
                         Standard orientation:                         
 ---------------------------------------------------------------------
 Center     Atomic      Atomic             Coordinates (Angstroms)
 Number     Number       Type             X           Y           Z
 ---------------------------------------------------------------------
      1         80           0        0.202457   -0.151841   -0.137975
      2          1           0       -3.565694   -2.593489   -0.609777
      3          8           0       -2.914646   -2.454039    0.099772
      4          1           0       -3.246364   -2.935393    0.878069
      5          1           0       -2.275723   -1.187659    0.303678
      6          8           0       -1.724406   -0.303570    0.516250
      7          1           0       -2.265824    0.556086    0.430091
      8          1           0        2.375321   -0.863025   -1.395863
      9          8           0        2.186594   -0.219578   -0.686522
     10          1           0        2.996975   -0.243311    0.076483
     11          1           0       -3.612299    2.243388   -0.214200
     12          8           0       -2.897225    2.034136    0.414023
     13          1           0       -3.210191    2.365067    1.276403
     14          1           0       -0.985216    2.653911   -0.115645
     15          8           0       -0.080028    2.304809   -0.240789
     16          1           0        0.413498    2.960897   -0.761158
     17          1           0        4.590349    0.565911    0.943605
     18          8           0        3.947431   -0.163299    1.017397
     19          1           0        4.446896   -0.962765    1.265272
 ---------------------------------------------------------------------
 Rotational constants (GHZ):           1.4670856           0.6241503           0.4740225
 Leave Link  202 at Wed May 11 22:05:55 2022, MaxMem= 67108864000 cpu:               0.9 elap:               0.1
 (Enter /cm/shared/apps/gaussian/intel/EM64T/SSE4_2-enabled/binary//g16/l301.exe)
 Standard basis: SDDAll (6D, 10F)
 Ernie: Thresh=  0.10000D-02 Tol=  0.10000D-05 Strict=F.
 There are   129 symmetry adapted cartesian basis functions of A   symmetry.
 There are   129 symmetry adapted basis functions of A   symmetry.
   129 basis functions,   227 primitive gaussians,   129 cartesian basis functions
    33 alpha electrons       33 beta electrons
       nuclear repulsion energy       338.8565759184 Hartrees.
 IExCor=    0 DFT=F Ex=HF Corr=None ExCW=0 ScaHFX=  1.000000
 ScaDFX=  1.000000  1.000000  1.000000  1.000000 ScalE2=  1.000000  1.000000
 IRadAn=      5 IRanWt=     -1 IRanGd=            0 ICorTp=0 IEmpDi=  4
 NAtoms=   19 NActive=   19 NUniq=   19 SFac= 1.00D+00 NAtFMM=   60 NAOKFM=F Big=F
 Integral buffers will be    131072 words long.
 Raffenetti 1 integral format.
 Two-electron integral symmetry is turned on.
 Leave Link  301 at Wed May 11 22:05:55 2022, MaxMem= 67108864000 cpu:               1.4 elap:               0.1
 (Enter /cm/shared/apps/gaussian/intel/EM64T/SSE4_2-enabled/binary//g16/l302.exe)
 NPDir=0 NMtPBC=     1 NCelOv=     1 NCel=       1 NClECP=     1 NCelD=      1
         NCelK=      1 NCelE2=     1 NClLst=     1 CellRange=     0.0.
 One-electron integrals computed using PRISM.
 One-electron integral symmetry used in STVInt
   1 Symmetry operations used in ECPInt.
 ECPInt:  NShTT=    2346 NPrTT=    7709 LenC2=    2313 LenP2D=    5894.
 LDataN:  DoStor=T MaxTD1= 7 Len=  274
 NBasis=   129 RedAO= T EigKep=  3.80D-04  NBF=   129
 NBsUse=   129 1.00D-06 EigRej= -1.00D+00 NBFU=   129
 Leave Link  302 at Wed May 11 22:05:55 2022, MaxMem= 67108864000 cpu:               8.1 elap:               0.3
 (Enter /cm/shared/apps/gaussian/intel/EM64T/SSE4_2-enabled/binary//g16/l303.exe)
 DipDrv:  MaxL=1.
 Leave Link  303 at Wed May 11 22:05:55 2022, MaxMem= 67108864000 cpu:               1.1 elap:               0.1
 (Enter /cm/shared/apps/gaussian/intel/EM64T/SSE4_2-enabled/binary//g16/l401.exe)
 ExpMin= 2.00D-02 ExpMax= 4.71D+01 ExpMxC= 4.71D+01 IAcc=3 IRadAn=         5 AccDes= 0.00D+00
 Harris functional with IExCor=  205 and IRadAn=       5 diagonalized for initial guess.
 HarFok:  IExCor=  205 AccDes= 0.00D+00 IRadAn=         5 IDoV= 1 UseB2=F ITyADJ=14
 ICtDFT=  3500011 ScaDFX=  1.000000  1.000000  1.000000  1.000000
 Defaulting to unpruned grid for atomic number  80.
 FoFCou: FMM=F IPFlag=           0 FMFlag=      100000 FMFlg1=           0
         NFxFlg=           0 DoJE=T BraDBF=F KetDBF=T FulRan=T
         wScrn=  0.000000 ICntrl=       500 IOpCl=  0 I1Cent=   200000004 NGrid=           0
         NMat0=    1 NMatS0=      1 NMatT0=    0 NMatD0=    1 NMtDS0=    0 NMtDT0=    0
 Petite list used in FoFCou.
 Harris En= -257.162563953289    
 JPrj=0 DoOrth=F DoCkMO=F.
 Leave Link  401 at Wed May 11 22:05:56 2022, MaxMem= 67108864000 cpu:               9.1 elap:               0.4
 (Enter /cm/shared/apps/gaussian/intel/EM64T/SSE4_2-enabled/binary//g16/l502.exe)
 Integral symmetry usage will be decided dynamically.
 Closed shell SCF:
 Using DIIS extrapolation, IDIIS=  1040.
 NGot= 67108864000 LenX= 67108825412 LenY= 67108808330
 Requested convergence on RMS density matrix=1.00D-08 within 128 cycles.
 Requested convergence on MAX density matrix=1.00D-06.
 Requested convergence on             energy=1.00D-06.
 No special actions if energy rises.
 Fock matrices will be formed incrementally for  20 cycles.

 Cycle   1  Pass 0  IDiag  1:
 FoFJK:  IHMeth= 1 ICntrl=       0 DoSepK=F KAlg= 0 I1Cent=           0 FoldK=F
 IRaf= 940000000 NMat=       1 IRICut=       1 DoRegI=T DoRafI=F ISym2E= 0 IDoP0=0 IntGTp=1.
 FoFCou: FMM=F IPFlag=           0 FMFlag=      100000 FMFlg1=           0
         NFxFlg=           0 DoJE=F BraDBF=F KetDBF=F FulRan=T
         wScrn=  0.000000 ICntrl=         0 IOpCl=  0 I1Cent=           0 NGrid=           0
         NMat0=    1 NMatS0=      1 NMatT0=    0 NMatD0=    1 NMtDS0=    0 NMtDT0=    0
 Symmetry not used in FoFCou.
 E= -252.952200971234    
 DIIS: error= 3.19D-02 at cycle   1 NSaved=   1.
 NSaved= 1 IEnMin= 1 EnMin= -252.952200971234     IErMin= 1 ErrMin= 3.19D-02
 ErrMax= 3.19D-02  0.00D+00 EMaxC= 1.00D-01 BMatC= 6.23D-01 BMatP= 6.23D-01
 IDIUse=3 WtCom= 6.81D-01 WtEn= 3.19D-01
 Coeff-Com:  0.100D+01
 Coeff-En:   0.100D+01
 Coeff:      0.100D+01
 Gap=     0.668 Goal=   None    Shift=    0.000
 GapD=    0.668 DampG=2.000 DampE=0.250 DampFc=0.5000 IDamp=-1.
 Damping current iteration by 5.00D-01
 RMSDP=7.87D-03 MaxDP=2.40D-01              OVMax= 2.22D-01

 Cycle   2  Pass 0  IDiag  1:
 RMSU=  3.92D-03    CP:  1.01D+00
 E= -253.218287743946     Delta-E=       -0.266086772712 Rises=F Damp=T
 DIIS: error= 8.37D-03 at cycle   2 NSaved=   2.
 NSaved= 2 IEnMin= 2 EnMin= -253.218287743946     IErMin= 2 ErrMin= 8.37D-03
 ErrMax= 8.37D-03  0.00D+00 EMaxC= 1.00D-01 BMatC= 3.99D-02 BMatP= 6.23D-01
 IDIUse=3 WtCom= 9.16D-01 WtEn= 8.37D-02
 Coeff-Com: -0.245D+00 0.124D+01
 Coeff-En:   0.000D+00 0.100D+01
 Coeff:     -0.224D+00 0.122D+01
 Gap=     0.544 Goal=   None    Shift=    0.000
 RMSDP=2.54D-03 MaxDP=7.42D-02 DE=-2.66D-01 OVMax= 6.20D-02

 Cycle   3  Pass 0  IDiag  1:
 RMSU=  2.12D-03    CP:  1.00D+00  1.35D+00
 E= -253.444635484946     Delta-E=       -0.226347741000 Rises=F Damp=F
 DIIS: error= 3.12D-03 at cycle   3 NSaved=   3.
 NSaved= 3 IEnMin= 3 EnMin= -253.444635484946     IErMin= 3 ErrMin= 3.12D-03
 ErrMax= 3.12D-03  0.00D+00 EMaxC= 1.00D-01 BMatC= 2.78D-03 BMatP= 3.99D-02
 IDIUse=3 WtCom= 9.69D-01 WtEn= 3.12D-02
 Coeff-Com:  0.605D-01-0.227D+00 0.117D+01
 Coeff-En:   0.000D+00 0.000D+00 0.100D+01
 Coeff:      0.586D-01-0.220D+00 0.116D+01
 Gap=     0.537 Goal=   None    Shift=    0.000
 RMSDP=1.01D-03 MaxDP=3.37D-02 DE=-2.26D-01 OVMax= 2.26D-02

 Cycle   4  Pass 0  IDiag  1:
 RMSU=  5.15D-04    CP:  9.93D-01  1.30D+00  1.38D+00
 E= -253.448522868927     Delta-E=       -0.003887383981 Rises=F Damp=F
 DIIS: error= 1.87D-03 at cycle   4 NSaved=   4.
 NSaved= 4 IEnMin= 4 EnMin= -253.448522868927     IErMin= 4 ErrMin= 1.87D-03
 ErrMax= 1.87D-03  0.00D+00 EMaxC= 1.00D-01 BMatC= 4.76D-04 BMatP= 2.78D-03
 IDIUse=3 WtCom= 9.81D-01 WtEn= 1.87D-02
 Coeff-Com:  0.301D-01-0.133D+00 0.343D+00 0.760D+00
 Coeff-En:   0.000D+00 0.000D+00 0.000D+00 0.100D+01
 Coeff:      0.296D-01-0.130D+00 0.336D+00 0.764D+00
 Gap=     0.540 Goal=   None    Shift=    0.000
 RMSDP=2.88D-04 MaxDP=8.13D-03 DE=-3.89D-03 OVMax= 1.00D-02

 Cycle   5  Pass 0  IDiag  1:
 RMSU=  1.89D-04    CP:  9.92D-01  1.32D+00  1.47D+00  1.12D+00
 E= -253.449256656210     Delta-E=       -0.000733787283 Rises=F Damp=F
 DIIS: error= 6.39D-04 at cycle   5 NSaved=   5.
 NSaved= 5 IEnMin= 5 EnMin= -253.449256656210     IErMin= 5 ErrMin= 6.39D-04
 ErrMax= 6.39D-04  0.00D+00 EMaxC= 1.00D-01 BMatC= 4.74D-05 BMatP= 4.76D-04
 IDIUse=3 WtCom= 9.94D-01 WtEn= 6.39D-03
 Coeff-Com: -0.204D-01 0.745D-01-0.234D+00-0.255D+00 0.143D+01
 Coeff-En:   0.000D+00 0.000D+00 0.000D+00 0.000D+00 0.100D+01
 Coeff:     -0.202D-01 0.741D-01-0.232D+00-0.253D+00 0.143D+01
 Gap=     0.538 Goal=   None    Shift=    0.000
 RMSDP=2.30D-04 MaxDP=6.22D-03 DE=-7.34D-04 OVMax= 7.80D-03

 Cycle   6  Pass 0  IDiag  1:
 RMSU=  6.43D-05    CP:  9.91D-01  1.33D+00  1.54D+00  1.35D+00  1.57D+00
 E= -253.449440655617     Delta-E=       -0.000183999407 Rises=F Damp=F
 DIIS: error= 1.53D-04 at cycle   6 NSaved=   6.
 NSaved= 6 IEnMin= 6 EnMin= -253.449440655617     IErMin= 6 ErrMin= 1.53D-04
 ErrMax= 1.53D-04  0.00D+00 EMaxC= 1.00D-01 BMatC= 7.29D-06 BMatP= 4.74D-05
 IDIUse=3 WtCom= 9.98D-01 WtEn= 1.53D-03
 Coeff-Com: -0.589D-02 0.252D-01-0.932D-01-0.106D+00 0.342D+00 0.838D+00
 Coeff-En:   0.000D+00 0.000D+00 0.000D+00 0.000D+00 0.000D+00 0.100D+01
 Coeff:     -0.588D-02 0.252D-01-0.931D-01-0.106D+00 0.342D+00 0.838D+00
 Gap=     0.538 Goal=   None    Shift=    0.000
 RMSDP=5.67D-05 MaxDP=1.35D-03 DE=-1.84D-04 OVMax= 1.89D-03

 Cycle   7  Pass 0  IDiag  1:
 RMSU=  1.61D-05    CP:  9.90D-01  1.32D+00  1.55D+00  1.40D+00  1.69D+00
                    CP:  1.26D+00
 E= -253.449453718365     Delta-E=       -0.000013062748 Rises=F Damp=F
 DIIS: error= 4.66D-05 at cycle   7 NSaved=   7.
 NSaved= 7 IEnMin= 7 EnMin= -253.449453718365     IErMin= 7 ErrMin= 4.66D-05
 ErrMax= 4.66D-05  0.00D+00 EMaxC= 1.00D-01 BMatC= 7.57D-07 BMatP= 7.29D-06
 IDIUse=1 WtCom= 1.00D+00 WtEn= 0.00D+00
 Coeff-Com:  0.300D-02-0.840D-02 0.246D-01 0.340D-01-0.211D+00 0.623D-01
 Coeff-Com:  0.110D+01
 Coeff:      0.300D-02-0.840D-02 0.246D-01 0.340D-01-0.211D+00 0.623D-01
 Coeff:      0.110D+01
 Gap=     0.538 Goal=   None    Shift=    0.000
 RMSDP=2.29D-05 MaxDP=6.03D-04 DE=-1.31D-05 OVMax= 7.61D-04

 Cycle   8  Pass 0  IDiag  1:
 RMSU=  5.61D-06    CP:  9.90D-01  1.32D+00  1.56D+00  1.42D+00  1.75D+00
                    CP:  1.44D+00  1.27D+00
 E= -253.449455340707     Delta-E=       -0.000001622341 Rises=F Damp=F
 DIIS: error= 7.58D-06 at cycle   8 NSaved=   8.
 NSaved= 8 IEnMin= 8 EnMin= -253.449455340707     IErMin= 8 ErrMin= 7.58D-06
 ErrMax= 7.58D-06  0.00D+00 EMaxC= 1.00D-01 BMatC= 2.24D-08 BMatP= 7.57D-07
 IDIUse=1 WtCom= 1.00D+00 WtEn= 0.00D+00
 Coeff-Com: -0.510D-03 0.993D-03-0.828D-03-0.529D-02 0.365D-01-0.336D-01
 Coeff-Com: -0.263D+00 0.127D+01
 Coeff:     -0.510D-03 0.993D-03-0.828D-03-0.529D-02 0.365D-01-0.336D-01
 Coeff:     -0.263D+00 0.127D+01
 Gap=     0.538 Goal=   None    Shift=    0.000
 RMSDP=3.04D-06 MaxDP=9.95D-05 DE=-1.62D-06 OVMax= 8.13D-05

 Initial convergence to 1.0D-05 achieved.  Increase integral accuracy.
 Cycle   9  Pass 1  IDiag  1:
 E= -253.449455391231     Delta-E=       -0.000000050524 Rises=F Damp=F
 DIIS: error= 3.04D-06 at cycle   1 NSaved=   1.
 NSaved= 1 IEnMin= 1 EnMin= -253.449455391231     IErMin= 1 ErrMin= 3.04D-06
 ErrMax= 3.04D-06  0.00D+00 EMaxC= 1.00D-01 BMatC= 2.28D-09 BMatP= 2.28D-09
 IDIUse=1 WtCom= 1.00D+00 WtEn= 0.00D+00
 Coeff-Com:  0.100D+01
 Coeff:      0.100D+01
 Gap=     0.538 Goal=   None    Shift=    0.000
 RMSDP=3.04D-06 MaxDP=9.95D-05 DE=-5.05D-08 OVMax= 1.28D-05

 Cycle  10  Pass 1  IDiag  1:
 RMSU=  5.58D-07    CP:  1.00D+00
 E= -253.449455394349     Delta-E=       -0.000000003119 Rises=F Damp=F
 DIIS: error= 1.34D-06 at cycle   2 NSaved=   2.
 NSaved= 2 IEnMin= 2 EnMin= -253.449455394349     IErMin= 2 ErrMin= 1.34D-06
 ErrMax= 1.34D-06  0.00D+00 EMaxC= 1.00D-01 BMatC= 6.70D-10 BMatP= 2.28D-09
 IDIUse=1 WtCom= 1.00D+00 WtEn= 0.00D+00
 Coeff-Com:  0.282D+00 0.718D+00
 Coeff:      0.282D+00 0.718D+00
 Gap=     0.538 Goal=   None    Shift=    0.000
 RMSDP=2.24D-07 MaxDP=6.07D-06 DE=-3.12D-09 OVMax= 1.04D-05

 Cycle  11  Pass 1  IDiag  1:
 RMSU=  1.95D-07    CP:  1.00D+00  1.20D+00
 E= -253.449455395191     Delta-E=       -0.000000000842 Rises=F Damp=F
 DIIS: error= 6.30D-07 at cycle   3 NSaved=   3.
 NSaved= 3 IEnMin= 3 EnMin= -253.449455395191     IErMin= 3 ErrMin= 6.30D-07
 ErrMax= 6.30D-07  0.00D+00 EMaxC= 1.00D-01 BMatC= 1.04D-10 BMatP= 6.70D-10
 IDIUse=1 WtCom= 1.00D+00 WtEn= 0.00D+00
 Coeff-Com: -0.321D+00-0.223D+00 0.154D+01
 Coeff:     -0.321D+00-0.223D+00 0.154D+01
 Gap=     0.538 Goal=   None    Shift=    0.000
 RMSDP=2.91D-07 MaxDP=8.65D-06 DE=-8.42D-10 OVMax= 1.07D-05

 Cycle  12  Pass 1  IDiag  1:
 RMSU=  6.02D-08    CP:  1.00D+00  1.65D+00  1.69D+00
 E= -253.449455395541     Delta-E=       -0.000000000350 Rises=F Damp=F
 DIIS: error= 8.85D-08 at cycle   4 NSaved=   4.
 NSaved= 4 IEnMin= 4 EnMin= -253.449455395541     IErMin= 4 ErrMin= 8.85D-08
 ErrMax= 8.85D-08  0.00D+00 EMaxC= 1.00D-01 BMatC= 3.28D-12 BMatP= 1.04D-10
 IDIUse=1 WtCom= 1.00D+00 WtEn= 0.00D+00
 Coeff-Com: -0.552D-01-0.541D-01 0.210D+00 0.900D+00
 Coeff:     -0.552D-01-0.541D-01 0.210D+00 0.900D+00
 Gap=     0.538 Goal=   None    Shift=    0.000
 RMSDP=3.54D-08 MaxDP=9.71D-07 DE=-3.50D-10 OVMax= 1.27D-06

 Cycle  13  Pass 1  IDiag  1:
 RMSU=  1.48D-08    CP:  1.00D+00  1.69D+00  1.78D+00  1.20D+00
 E= -253.449455395543     Delta-E=       -0.000000000002 Rises=F Damp=F
 DIIS: error= 4.39D-08 at cycle   5 NSaved=   5.
 NSaved= 5 IEnMin= 5 EnMin= -253.449455395543     IErMin= 5 ErrMin= 4.39D-08
 ErrMax= 4.39D-08  0.00D+00 EMaxC= 1.00D-01 BMatC= 6.21D-13 BMatP= 3.28D-12
 IDIUse=1 WtCom= 1.00D+00 WtEn= 0.00D+00
 Coeff-Com:  0.613D-01 0.433D-01-0.300D+00 0.691D-01 0.113D+01
 Coeff:      0.613D-01 0.433D-01-0.300D+00 0.691D-01 0.113D+01
 Gap=     0.538 Goal=   None    Shift=    0.000
 RMSDP=1.83D-08 MaxDP=4.73D-07 DE=-2.05D-12 OVMax= 6.09D-07

 Cycle  14  Pass 1  IDiag  1:
 RMSU=  4.99D-09    CP:  1.00D+00  1.70D+00  1.83D+00  1.40D+00  1.26D+00
 E= -253.449455395550     Delta-E=       -0.000000000007 Rises=F Damp=F
 DIIS: error= 1.19D-08 at cycle   6 NSaved=   6.
 NSaved= 6 IEnMin= 6 EnMin= -253.449455395550     IErMin= 6 ErrMin= 1.19D-08
 ErrMax= 1.19D-08  0.00D+00 EMaxC= 1.00D-01 BMatC= 3.51D-14 BMatP= 6.21D-13
 IDIUse=1 WtCom= 1.00D+00 WtEn= 0.00D+00
 Coeff-Com:  0.102D-01 0.920D-02-0.458D-01-0.578D-01 0.141D+00 0.943D+00
 Coeff:      0.102D-01 0.920D-02-0.458D-01-0.578D-01 0.141D+00 0.943D+00
 Gap=     0.538 Goal=   None    Shift=    0.000
 RMSDP=3.21D-09 MaxDP=9.34D-08 DE=-6.59D-12 OVMax= 1.12D-07

 SCF Done:  E(RHF) =  -253.449455396     A.U. after   14 cycles
            NFock= 14  Conv=0.32D-08     -V/T= 2.9192
 KE= 1.320598615477D+02 PE=-1.222851989154D+03 EE= 4.984860962922D+02
 Leave Link  502 at Wed May 11 22:05:58 2022, MaxMem= 67108864000 cpu:              62.5 elap:               2.3
 (Enter /cm/shared/apps/gaussian/intel/EM64T/SSE4_2-enabled/binary//g16/l801.exe)
 Range of M.O.s used for correlation:     1   129
 NBasis=   129 NAE=    33 NBE=    33 NFC=     0 NFV=     0
 NROrb=    129 NOA=    33 NOB=    33 NVA=    96 NVB=    96

 **** Warning!!: The largest alpha MO coefficient is  0.28666547D+02

 Leave Link  801 at Wed May 11 22:05:58 2022, MaxMem= 67108864000 cpu:               0.9 elap:               0.1
 (Enter /cm/shared/apps/gaussian/intel/EM64T/SSE4_2-enabled/binary//g16/l906.exe)
 FulOut=F Deriv=T AODrv=T NAtomX=    19
   MMem=           0  MDisk=          33 MDiskD=          33
  W3Min=      549153 MinDsk=     1693460 NBas6D=         129
 NBas2D=        8499    NTT=        8385    LW2=     3308096
    MDV= 67108619705 MDiskM=     7225088 NBas2p=        8124
 Disk-based method using ON**2 memory for 33 occupieds at a time.
 Permanent disk used for amplitudes=    12443904 words.
 Estimated scratch disk usage=   132565180 words.
 IMap=   1   2   3   4   5   6   7   8   9  10  11  12  13  14  15  16  17  18  19  20
 IMap=  21  22  23  24  25  26  27  28  29  30  31  32  33
 Actual    scratch disk usage=   120776380 words.
 JobTyp=1 Pass  1:  I=   1 to  33 NPSUse= 28 ParTrn=T ParDer=T DoDerP=T.
 (rs|ai) integrals will be sorted in core.
 Spin components of T(2) and E(2):
     alpha-alpha T2 =       0.3591032066D-01 E2=     -0.1157857583D+00
     alpha-beta  T2 =       0.2107146700D+00 E2=     -0.6907671046D+00
     beta-beta   T2 =       0.3591032066D-01 E2=     -0.1157857583D+00
 The integrals were generated   1 times.
 ANorm=    0.1132490756D+01
 E2 =    -0.9223386212D+00 EUMP2 =    -0.25437179401678D+03
 Leave Link  906 at Wed May 11 22:06:14 2022, MaxMem= 67108864000 cpu:             433.2 elap:              15.5
 (Enter /cm/shared/apps/gaussian/intel/EM64T/SSE4_2-enabled/binary//g16/l1101.exe)
 Using compressed Sx but separate Hx and Fx, NAtomX=    19.
 Will process     20 centers per pass.
   1 Symmetry operations used in ECPInt.
 ECPInt:  NShTT=    2346 NPrTT=    7709 LenC2=    2313 LenP2D=    5894.
 LDataN:  DoStor=T MaxTD1= 8 Len=  415
 Leave Link 1101 at Wed May 11 22:06:14 2022, MaxMem= 67108864000 cpu:              13.2 elap:               0.5
 (Enter /cm/shared/apps/gaussian/intel/EM64T/SSE4_2-enabled/binary//g16/l1102.exe)
 Leave Link 1102 at Wed May 11 22:06:14 2022, MaxMem= 67108864000 cpu:               0.6 elap:               0.0
 (Enter /cm/shared/apps/gaussian/intel/EM64T/SSE4_2-enabled/binary//g16/l1110.exe)
 Forming Gx(P) for the SCF density, NAtomX=    19.
 Integral derivatives from FoFJK, PRISM(SPDF).
 Do as many integral derivatives as possible in FoFJK.
 G2DrvN: MDV=   67108862534.
 G2DrvN: will do    20 centers at a time, making    1 passes.
 Calling FoFCou, ICntrl=  3107 FMM=F I1Cent=   0 AccDes= 0.00D+00.
 FoFJK:  IHMeth= 1 ICntrl=    3107 DoSepK=F KAlg= 0 I1Cent=           0 FoldK=F
 IRaf=         0 NMat=       1 IRICut=       1 DoRegI=T DoRafI=F ISym2E= 0 IDoP0=0 IntGTp=1.
 FoFCou: FMM=F IPFlag=           0 FMFlag=      100000 FMFlg1=           0
         NFxFlg=           0 DoJE=F BraDBF=F KetDBF=F FulRan=T
         wScrn=  0.000000 ICntrl=      3107 IOpCl=  0 I1Cent=           0 NGrid=           0
         NMat0=    1 NMatS0=      1 NMatT0=    0 NMatD0=    1 NMtDS0=    0 NMtDT0=    0
 Symmetry not used in FoFCou.
 End of G2Drv F.D. properties file   721 does not exist.
 End of G2Drv F.D. properties file   722 does not exist.
 End of G2Drv F.D. properties file   788 does not exist.
 Leave Link 1110 at Wed May 11 22:06:15 2022, MaxMem= 67108864000 cpu:              13.2 elap:               0.5
 (Enter /cm/shared/apps/gaussian/intel/EM64T/SSE4_2-enabled/binary//g16/l1002.exe)
 Minotr:  Closed shell wavefunction.
          IDoAtm=1111111111111111111
          Direct CPHF calculation.
          Differentiating once with respect to electric field.
                with respect to dipole field.
          Differentiating once with respect to nuclear coordinates.
          Requested convergence is 1.0D-08 RMS, and 1.0D-07 maximum.
          Secondary convergence is 1.0D-12 RMS, and 1.0D-12 maximum.
          NewPWx=T KeepS1=T KeepF1=T KeepIn=T MapXYZ=F SortEE=F KeepMc=T.
 Keep R1 ints in memory in canonical form, NReq=41173266.
 FoFCou: FMM=F IPFlag=           0 FMFlag=           0 FMFlg1=           0
         NFxFlg=           0 DoJE=F BraDBF=F KetDBF=F FulRan=T
         wScrn=  0.000000 ICntrl=       600 IOpCl=  0 I1Cent=           0 NGrid=           0
         NMat0=    1 NMatS0=   8385 NMatT0=    0 NMatD0=    1 NMtDS0=    0 NMtDT0=    0
 Symmetry not used in FoFCou.
 Two-electron integral symmetry not used.
          MDV=   67108864000 using IRadAn=       1.
          Solving linear equations simultaneously, MaxMat=       0.
          There are    60 degrees of freedom in the 1st order CPHF.  IDoFFX=6 NUNeed=    60.
     57 vectors produced by pass  0 Test12= 5.28D-15 1.67D-09 XBig12= 1.14D+01 1.04D+00.
 AX will form    57 AO Fock derivatives at one time.
     57 vectors produced by pass  1 Test12= 5.28D-15 1.67D-09 XBig12= 1.73D-01 5.68D-02.
     57 vectors produced by pass  2 Test12= 5.28D-15 1.67D-09 XBig12= 2.03D-03 6.49D-03.
     57 vectors produced by pass  3 Test12= 5.28D-15 1.67D-09 XBig12= 1.53D-05 6.42D-04.
     57 vectors produced by pass  4 Test12= 5.28D-15 1.67D-09 XBig12= 1.22D-07 8.69D-05.
     57 vectors produced by pass  5 Test12= 5.28D-15 1.67D-09 XBig12= 7.18D-10 3.32D-06.
     37 vectors produced by pass  6 Test12= 5.28D-15 1.67D-09 XBig12= 3.93D-12 2.72D-07.
      3 vectors produced by pass  7 Test12= 5.28D-15 1.67D-09 XBig12= 1.81D-14 1.64D-08.
 InvSVY:  IOpt=1 It=  1 EMax= 2.22D-15
 Solved reduced A of dimension   382 with    60 vectors.
 FullF1:  Do perturbations      1 to      60.
 Saving first derivative matrices.
 End of Minotr F.D. properties file   721 does not exist.
 End of Minotr F.D. properties file   722 does not exist.
 End of Minotr F.D. properties file   788 does not exist.
 Leave Link 1002 at Wed May 11 22:06:16 2022, MaxMem= 67108864000 cpu:              48.5 elap:               1.8
 (Enter /cm/shared/apps/gaussian/intel/EM64T/SSE4_2-enabled/binary//g16/l811.exe)
 MDV= 67108864000.
 Form MO integral derivatives with frozen-active canonical formalism.
 MOERI=1 MOERIx=1 NAtoms=    19 NAtomX=    19.
 Discarding MO integrals.
 MO basis two electron integral derivatives will not be stored on disk.
 IAlg= 3 DoFC=T DoPWx=T Debug=F.
 Reordered first order wavefunction length =     20072448
 In DefCFB: NBatch=  1 ICI= 33 ICA= 96 LFMax= 96
            Large arrays: LIAPS=   210874752 LIARS=   111567456 words.
 In StABat: MaxSiz= 39 MinSiz= 13 NAtomB=  4
 DoIAMN: NPSUse= 28.
 Leave Link  811 at Wed May 11 22:07:00 2022, MaxMem= 67108864000 cpu:            1225.4 elap:              43.9
 (Enter /cm/shared/apps/gaussian/intel/EM64T/SSE4_2-enabled/binary//g16/l804.exe)
 Closed-shell transformation, MDV= 67108864000 ITran=4 ISComp=1.
 Semi-Direct transformation.
 ModeAB=           4 MOrb=            33 LenV=   67108312708
 LASXX=     28702344 LTotXX=    28702344 LenRXX=    58192761
 LTotAB=    29490417 MaxLAS=    34204995 LenRXY=           0
 NonZer=    86895105 LenScr=   131092480 LnRSAI=    34204995
 LnScr1=    52073472 LExtra=           0 Total=    275563708
 MaxDsk=          -1 SrtSym=           T ITran=            4
 DoSDTr:  NPSUse= 28
 JobTyp=0 Pass  1:  I=   1 to  33.
 (rs|ai) integrals will be sorted in core.
 Complete sort for first half transformation.
 First half transformation complete.
 Begin second half transformation for I=  10.
 Begin second half transformation for I=  20.
 Begin second half transformation for I=  30.
 Complete sort for second half transformation.
 Second half transformation complete.
 SymMOI:  orbitals are not symmetric.
 Spin components of T(2) and E(2):
     alpha-alpha T2 =       0.3591032066D-01 E2=     -0.1157857583D+00
     alpha-beta  T2 =       0.2107146700D+00 E2=     -0.6907671046D+00
     beta-beta   T2 =       0.3591032066D-01 E2=     -0.1157857583D+00
 ANorm=    0.1601583786D+01
 E2 =    -0.9223386212D+00 EUMP2 =    -0.25437179401678D+03
 Leave Link  804 at Wed May 11 22:07:06 2022, MaxMem= 67108864000 cpu:             144.5 elap:               5.2
 (Enter /cm/shared/apps/gaussian/intel/EM64T/SSE4_2-enabled/binary//g16/l1002.exe)
 Minotr:  Closed shell wavefunction.
          Computing MP2/KS-MP2 derivatives.
          Using Z-Vector for PSCF gradient.
          Skipping F1 and S1 gradient terms here.
          IDoAtm=1111111111111111111
          Using MO integrals in the linear equations.
          Forming densities via direct SCF.
          Differentiating once with respect to electric field.
                with respect to dipole field.
          Differentiating once with respect to nuclear coordinates.
          Requested convergence is 1.0D-10 RMS, and 1.0D-09 maximum.
          NewPWx=F KeepS1=T KeepF1=T KeepIn=T MapXYZ=F SortEE=F KeepMc=T.
          MDV=   67108864000 using IRadAn=       5.
          Solving linear equations separately, MaxMat=       0.
          There are     1 degrees of freedom in the 1st order CPHF.  IDoFFX=0 NUNeed=     1.
 FoFJK:  IHMeth= 1 ICntrl=       0 DoSepK=F KAlg= 0 I1Cent=           0 FoldK=F
 IRaf=         0 NMat=       1 IRICut=       1 DoRegI=T DoRafI=F ISym2E= 0 IDoP0=0 IntGTp=1.
 FoFCou: FMM=F IPFlag=           0 FMFlag=      100000 FMFlg1=           0
         NFxFlg=           0 DoJE=F BraDBF=F KetDBF=F FulRan=T
         wScrn=  0.000000 ICntrl=         0 IOpCl=  0 I1Cent=           0 NGrid=           0
         NMat0=    1 NMatS0=      1 NMatT0=    0 NMatD0=    1 NMtDS0=    0 NMtDT0=    0
 Symmetry not used in FoFCou.
 LinEq1:  Iter=  0 NonCon=     1 RMS=6.33D-03 Max=8.60D-02 NDo=     1
 LinEq1:  Iter=  1 NonCon=     1 RMS=1.38D-03 Max=1.16D-02 NDo=     1
 LinEq1:  Iter=  2 NonCon=     1 RMS=4.37D-04 Max=6.91D-03 NDo=     1
 LinEq1:  Iter=  3 NonCon=     1 RMS=1.29D-04 Max=2.17D-03 NDo=     1
 LinEq1:  Iter=  4 NonCon=     1 RMS=4.52D-05 Max=6.74D-04 NDo=     1
 LinEq1:  Iter=  5 NonCon=     1 RMS=1.02D-05 Max=7.11D-05 NDo=     1
 LinEq1:  Iter=  6 NonCon=     1 RMS=4.41D-06 Max=4.35D-05 NDo=     1
 LinEq1:  Iter=  7 NonCon=     1 RMS=7.82D-07 Max=8.14D-06 NDo=     1
 LinEq1:  Iter=  8 NonCon=     1 RMS=1.40D-07 Max=1.31D-06 NDo=     1
 LinEq1:  Iter=  9 NonCon=     1 RMS=6.23D-08 Max=5.87D-07 NDo=     1
 LinEq1:  Iter= 10 NonCon=     1 RMS=1.70D-08 Max=1.88D-07 NDo=     1
 LinEq1:  Iter= 11 NonCon=     1 RMS=2.94D-09 Max=2.87D-08 NDo=     1
 LinEq1:  Iter= 12 NonCon=     1 RMS=1.44D-09 Max=1.55D-08 NDo=     1
 LinEq1:  Iter= 13 NonCon=     1 RMS=2.98D-10 Max=3.70D-09 NDo=     1
 LinEq1:  Iter= 14 NonCon=     0 RMS=5.48D-11 Max=5.62D-10 NDo=     1
 Linear equations converged to 1.000D-10 1.000D-09 after    14 iterations.
 End of Minotr F.D. properties file   721 does not exist.
 End of Minotr F.D. properties file   722 does not exist.
 End of Minotr F.D. properties file   788 does not exist.
 Leave Link 1002 at Wed May 11 22:07:08 2022, MaxMem= 67108864000 cpu:              67.2 elap:               2.4
 (Enter /cm/shared/apps/gaussian/intel/EM64T/SSE4_2-enabled/binary//g16/l1102.exe)
 Use density number 2.
 Symmetrizing basis deriv contribution to polar:
 IMax=3 JMax=2 DiffMx= 0.00D+00
 Leave Link 1102 at Wed May 11 22:07:08 2022, MaxMem= 67108864000 cpu:               0.9 elap:               0.1
 (Enter /cm/shared/apps/gaussian/intel/EM64T/SSE4_2-enabled/binary//g16/l1110.exe)
 Forming Gx(P) for generalized density number  2 NAtomX=    19.
 Integral derivatives from FoFJK, PRISM(SPDF).
 Do as many integral derivatives as possible in FoFJK.
 G2DrvN: MDV=   67108862534.
 G2DrvN: will do    20 centers at a time, making    1 passes.
 Calling FoFCou, ICntrl=  3107 FMM=F I1Cent=   0 AccDes= 0.00D+00.
 FoFJK:  IHMeth= 1 ICntrl=    3107 DoSepK=F KAlg= 0 I1Cent=           0 FoldK=F
 IRaf=         0 NMat=       1 IRICut=       1 DoRegI=T DoRafI=F ISym2E= 0 IDoP0=0 IntGTp=1.
 FoFCou: FMM=F IPFlag=           0 FMFlag=      100000 FMFlg1=           0
         NFxFlg=           0 DoJE=F BraDBF=F KetDBF=F FulRan=T
         wScrn=  0.000000 ICntrl=      3107 IOpCl=  0 I1Cent=           0 NGrid=           0
         NMat0=    1 NMatS0=      1 NMatT0=    0 NMatD0=    1 NMtDS0=    0 NMtDT0=    0
 Symmetry not used in FoFCou.
 End of G2Drv F.D. properties file   721 does not exist.
 End of G2Drv F.D. properties file   722 does not exist.
 End of G2Drv F.D. properties file   788 does not exist.
 Leave Link 1110 at Wed May 11 22:07:09 2022, MaxMem= 67108864000 cpu:              14.4 elap:               0.5
 (Enter /cm/shared/apps/gaussian/intel/EM64T/SSE4_2-enabled/binary//g16/l1112.exe)
 MP22nd: MDV=   67108864000
 This link is doing NAtomX=    19 total of    60 degrees of freedom.
 Using ON3 I/O method in MakUI.
 Using Ix for Sx.
 Using OV2 memory method for fx*t*t/D, MaxI=    33 DoOO2=F NP=  28.
 R2 and R3 integrals will be kept in memory, NReq=    71415045.
 FoFCou: FMM=F IPFlag=           0 FMFlag=           0 FMFlg1=           0
         NFxFlg=           0 DoJE=F BraDBF=F KetDBF=F FulRan=T
         wScrn=  0.000000 ICntrl=       600 IOpCl=  0 I1Cent=           0 NGrid=           0
         NMat0=    1 NMatS0=      1 NMatT0=    0 NMatD0=    1 NMtDS0=    0 NMtDT0=    0
 Symmetry not used in FoFCou.
 DD1Dir will call FoFMem   1 times, MxPair=      1122
 NAB=   561 NAA=     0 NBB=     0.
 Symmetry is being used.
 FoFJK:  IHMeth= 1 ICntrl=       0 DoSepK=F KAlg= 0 I1Cent=           0 FoldK=F
 IRaf=         0 NMat=      60 IRICut=     150 DoRegI=T DoRafI=T ISym2E= 2 IDoP0=0 IntGTp=1.
 Discarding MO integrals.
 Leave Link 1112 at Wed May 11 22:07:42 2022, MaxMem= 67108864000 cpu:             932.3 elap:              33.5
 (Enter /cm/shared/apps/gaussian/intel/EM64T/SSE4_2-enabled/binary//g16/l601.exe)
 Copying SCF densities to generalized density rwf, IOpCl= 0 IROHF=0.

 **********************************************************************

            Population analysis using the SCF density.

 **********************************************************************

 Orbital symmetries:
       Occupied  (A) (A) (A) (A) (A) (A) (A) (A) (A) (A) (A) (A)
                 (A) (A) (A) (A) (A) (A) (A) (A) (A) (A) (A) (A)
                 (A) (A) (A) (A) (A) (A) (A) (A) (A)
       Virtual   (A) (A) (A) (A) (A) (A) (A) (A) (A) (A) (A) (A)
                 (A) (A) (A) (A) (A) (A) (A) (A) (A) (A) (A) (A)
                 (A) (A) (A) (A) (A) (A) (A) (A) (A) (A) (A) (A)
                 (A) (A) (A) (A) (A) (A) (A) (A) (A) (A) (A) (A)
                 (A) (A) (A) (A) (A) (A) (A) (A) (A) (A) (A) (A)
                 (A) (A) (A) (A) (A) (A) (A) (A) (A) (A) (A) (A)
                 (A) (A) (A) (A) (A) (A) (A) (A) (A) (A) (A) (A)
                 (A) (A) (A) (A) (A) (A) (A) (A) (A) (A) (A) (A)
 The electronic state is 1-A.
 Alpha  occ. eigenvalues --   -5.41355  -3.41040  -3.40678  -3.40378  -1.69507
 Alpha  occ. eigenvalues --   -1.67638  -1.66510  -1.66136  -1.64180  -1.63885
 Alpha  occ. eigenvalues --   -1.07245  -1.06142  -1.05569  -1.02782  -1.01134
 Alpha  occ. eigenvalues --   -1.00848  -1.00232  -0.99094  -0.98360  -0.97468
 Alpha  occ. eigenvalues --   -0.97330  -0.94212  -0.91286  -0.87850  -0.86647
 Alpha  occ. eigenvalues --   -0.85774  -0.83480  -0.83109  -0.81451  -0.81095
 Alpha  occ. eigenvalues --   -0.80734  -0.79858  -0.77989
 Alpha virt. eigenvalues --   -0.24169  -0.18179  -0.16093  -0.14885  -0.14347
 Alpha virt. eigenvalues --   -0.10586  -0.09768  -0.08331  -0.07512  -0.06641
 Alpha virt. eigenvalues --   -0.05867  -0.04853  -0.03864  -0.03044  -0.01903
 Alpha virt. eigenvalues --   -0.00152   0.00084   0.00284   0.01166   0.01922
 Alpha virt. eigenvalues --    0.02481   0.03018   0.03778   0.04423   0.05123
 Alpha virt. eigenvalues --    0.06182   0.07007   0.08154   0.09264   0.10025
 Alpha virt. eigenvalues --    0.11521   0.12095   0.13263   0.13748   0.15348
 Alpha virt. eigenvalues --    0.16971   0.17593   0.18348   0.20914   0.21377
 Alpha virt. eigenvalues --    0.22675   0.25255   0.26347   0.28039   0.37022
 Alpha virt. eigenvalues --    0.64823   0.68138   0.68503   0.69830   0.94189
 Alpha virt. eigenvalues --    0.98810   1.05734   1.06902   1.07100   1.07896
 Alpha virt. eigenvalues --    1.09384   1.09819   1.10302   1.11881   1.12879
 Alpha virt. eigenvalues --    1.13360   1.13896   1.15120   1.15844   1.16610
 Alpha virt. eigenvalues --    1.17699   1.18287   1.19182   1.20583   1.21890
 Alpha virt. eigenvalues --    1.23287   1.25541   1.27593   1.29136   1.31655
 Alpha virt. eigenvalues --    1.32830   1.34630   1.35976   1.37409   1.38519
 Alpha virt. eigenvalues --    1.39615   1.48038   1.52572   1.53230   2.16705
 Alpha virt. eigenvalues --    2.29385   2.39494   2.54057   2.84427   3.07583
 Alpha virt. eigenvalues --    4.26372  15.49905  41.60439  41.67102  41.74981
 Alpha virt. eigenvalues --   81.48074
          Condensed to atoms (all electrons):
               1          2          3          4          5          6
     1  Hg  18.386847   0.000372  -0.002321   0.000722  -0.003584   0.121819
     2  H    0.000372   0.244375   0.260365  -0.014750  -0.001045   0.000747
     3  O   -0.002321   0.260365   6.393184   0.262708   0.050655  -0.035638
     4  H    0.000722  -0.014750   0.262708   0.238502  -0.001143   0.000636
     5  H   -0.003584  -0.001045   0.050655  -0.001143   0.146044   0.180880
     6  O    0.121819   0.000747  -0.035638   0.000636   0.180880   6.654561
     7  H   -0.003791  -0.000001   0.000137  -0.000014  -0.004135   0.205367
     8  H   -0.005148   0.000000   0.000005  -0.000000   0.000000  -0.000177
     9  O    0.115006  -0.000000  -0.000034   0.000001  -0.000096   0.000673
    10  H   -0.003130  -0.000000   0.000001   0.000000   0.000000   0.000037
    11  H    0.000655  -0.000000   0.000042  -0.000000   0.000001  -0.000228
    12  O   -0.009894   0.000058  -0.001030   0.000008   0.000272  -0.018549
    13  H    0.001071  -0.000000  -0.000000  -0.000000  -0.000007  -0.000229
    14  H   -0.004044   0.000000   0.000000   0.000000   0.000001   0.001035
    15  O    0.021797  -0.000000  -0.000009  -0.000001   0.000215  -0.006281
    16  H   -0.002354  -0.000000   0.000001  -0.000000  -0.000000   0.000151
    17  H    0.000681  -0.000000  -0.000000   0.000000   0.000000   0.000001
    18  O   -0.000351   0.000000   0.000002  -0.000000   0.000002  -0.000029
    19  H    0.000571   0.000000  -0.000000   0.000000   0.000000   0.000002
               7          8          9         10         11         12
     1  Hg  -0.003791  -0.005148   0.115006  -0.003130   0.000655  -0.009894
     2  H   -0.000001   0.000000  -0.000000  -0.000000  -0.000000   0.000058
     3  O    0.000137   0.000005  -0.000034   0.000001   0.000042  -0.001030
     4  H   -0.000014  -0.000000   0.000001   0.000000  -0.000000   0.000008
     5  H   -0.004135   0.000000  -0.000096   0.000000   0.000001   0.000272
     6  O    0.205367  -0.000177   0.000673   0.000037  -0.000228  -0.018549
     7  H    0.167591   0.000000   0.000051   0.000000  -0.000685   0.029913
     8  H    0.000000   0.239179   0.243315  -0.007441   0.000000   0.000002
     9  O    0.000051   0.243315   6.570452   0.160047   0.000001  -0.000055
    10  H    0.000000  -0.007441   0.160047   0.143717  -0.000000   0.000001
    11  H   -0.000685   0.000000   0.000001  -0.000000   0.248702   0.261578
    12  O    0.029913   0.000002  -0.000055   0.000001   0.261578   6.438737
    13  H   -0.000690  -0.000000  -0.000000   0.000000  -0.015917   0.264866
    14  H   -0.000075  -0.000000   0.000140  -0.000000  -0.000074   0.001963
    15  O    0.000449   0.000280  -0.005067   0.000118   0.000012  -0.010171
    16  H    0.000009  -0.000002   0.000323   0.000000  -0.000000   0.000736
    17  H   -0.000000  -0.000030   0.001673  -0.001911   0.000000  -0.000000
    18  O    0.000001   0.001226  -0.055019   0.077470  -0.000000   0.000004
    19  H   -0.000000  -0.000035   0.000966  -0.001869  -0.000000  -0.000000
              13         14         15         16         17         18
     1  Hg   0.001071  -0.004044   0.021797  -0.002354   0.000681  -0.000351
     2  H   -0.000000   0.000000  -0.000000  -0.000000  -0.000000   0.000000
     3  O   -0.000000   0.000000  -0.000009   0.000001  -0.000000   0.000002
     4  H   -0.000000   0.000000  -0.000001  -0.000000   0.000000  -0.000000
     5  H   -0.000007   0.000001   0.000215  -0.000000   0.000000   0.000002
     6  O   -0.000229   0.001035  -0.006281   0.000151   0.000001  -0.000029
     7  H   -0.000690  -0.000075   0.000449   0.000009  -0.000000   0.000001
     8  H   -0.000000  -0.000000   0.000280  -0.000002  -0.000030   0.001226
     9  O   -0.000000   0.000140  -0.005067   0.000323   0.001673  -0.055019
    10  H    0.000000  -0.000000   0.000118   0.000000  -0.001911   0.077470
    11  H   -0.015917  -0.000074   0.000012  -0.000000   0.000000  -0.000000
    12  O    0.264866   0.001963  -0.010171   0.000736  -0.000000   0.000004
    13  H    0.242848   0.000060  -0.000012  -0.000004  -0.000000  -0.000000
    14  H    0.000060   0.230068   0.255004  -0.013219  -0.000000   0.000004
    15  O   -0.000012   0.255004   6.460308   0.259405  -0.000008   0.000200
    16  H   -0.000004  -0.013219   0.259405   0.239844  -0.000000  -0.000007
    17  H   -0.000000  -0.000000  -0.000008  -0.000000   0.230133   0.258517
    18  O   -0.000000   0.000004   0.000200  -0.000007   0.258517   6.371947
    19  H    0.000000  -0.000000  -0.000005   0.000000  -0.013064   0.257350
              19
     1  Hg   0.000571
     2  H    0.000000
     3  O   -0.000000
     4  H    0.000000
     5  H    0.000000
     6  O    0.000002
     7  H   -0.000000
     8  H   -0.000035
     9  O    0.000966
    10  H   -0.001869
    11  H   -0.000000
    12  O   -0.000000
    13  H    0.000000
    14  H   -0.000000
    15  O   -0.000005
    16  H    0.000000
    17  H   -0.013064
    18  O    0.257350
    19  H    0.234960
 Mulliken charges:
               1
     1  Hg   1.385078
     2  H    0.509879
     3  O   -0.928068
     4  H    0.513333
     5  H    0.631941
     6  O   -1.104778
     7  H    0.605873
     8  H    0.528827
     9  O   -1.032376
    10  H    0.632959
    11  H    0.505915
    12  O   -0.958439
    13  H    0.508015
    14  H    0.529139
    15  O   -0.976233
    16  H    0.515117
    17  H    0.524010
    18  O   -0.911315
    19  H    0.521124
 Sum of Mulliken charges =   2.00000
 Mulliken charges with hydrogens summed into heavy atoms:
               1
     1  Hg   1.385078
     3  O    0.095144
     6  O    0.133036
     9  O    0.129410
    12  O    0.055491
    15  O    0.068023
    18  O    0.133818
         Mulliken charges condensed to fragments:
      1      1.385078
      2      0.614922
 APT charges:
               1
     1  Hg   1.484876
     2  H    0.378032
     3  O   -0.791569
     4  H    0.386159
     5  H    0.776519
     6  O   -1.069105
     7  H    0.604835
     8  H    0.341835
     9  O   -0.936309
    10  H    0.867158
    11  H    0.367710
    12  O   -0.746774
    13  H    0.374134
    14  H    0.400772
    15  O   -0.771772
    16  H    0.355438
    17  H    0.402102
    18  O   -0.819594
    19  H    0.395552
 Sum of APT charges =   2.00000
 APT charges with hydrogens summed into heavy atoms:
               1
     1  Hg   1.484876
     3  O   -0.027377
     6  O    0.312249
     9  O    0.272685
    12  O   -0.004929
    15  O   -0.015563
    18  O   -0.021940
         APT charges condensed to fragments:
      1      1.484876
      2      0.515124
 Electronic spatial extent (au):  <R**2>=           1855.3856
 Charge=              2.0000 electrons
 Dipole moment (field-independent basis, Debye):
    X=             -1.6166    Y=             -0.3772    Z=             -0.2898  Tot=              1.6851
 Quadrupole moment (field-independent basis, Debye-Ang):
   XX=             49.9712   YY=            -17.7109   ZZ=            -48.4964
   XY=             -4.5808   XZ=              2.1833   YZ=             -1.1830
 Traceless Quadrupole moment (field-independent basis, Debye-Ang):
   XX=             55.3832   YY=            -12.2989   ZZ=            -43.0844
   XY=             -4.5808   XZ=              2.1833   YZ=             -1.1830
 Octapole moment (field-independent basis, Debye-Ang**2):
  XXX=             67.6336  YYY=             11.6759  ZZZ=            -14.0463  XYY=            -75.3390
  XXY=            -34.2447  XXZ=             48.4221  XZZ=              3.3045  YZZ=             -7.9573
  YYZ=             -0.8444  XYZ=             -6.5316
 Hexadecapole moment (field-independent basis, Debye-Ang**3):
 XXXX=            317.4787 YYYY=           -351.6385 ZZZZ=           -120.1226 XXXY=            -19.5228
 XXXZ=            197.9660 YYYX=             52.4997 YYYZ=            -48.3458 ZZZX=            -22.3363
 ZZZY=             10.7380 XXYY=             66.3087 XXZZ=           -176.3290 YYZZ=            -79.7060
 XXYZ=             12.0025 YYXZ=            -42.7776 ZZXY=            -19.5869
 N-N= 3.388565759184D+02 E-N=-1.222851990034D+03  KE= 1.320598615477D+02
  Exact polarizability:  70.521   1.000  56.005  -0.328  -0.178  45.381
 Approx polarizability:  39.604   0.541  35.512   0.751  -0.088  33.055
 No NMR shielding tensors so no spin-rotation constants.
 Leave Link  601 at Wed May 11 22:07:42 2022, MaxMem= 67108864000 cpu:               4.1 elap:               0.2
 (Enter /cm/shared/apps/gaussian/intel/EM64T/SSE4_2-enabled/binary//g16/l701.exe)
 ... and contract with generalized density number  2.
 Compute integral second derivatives.
   1 Symmetry operations used in ECPInt.
 ECPInt:  NShTT=    2346 NPrTT=    7709 LenC2=    2313 LenP2D=    5894.
 LDataN:  DoStor=T MaxTD1= 9 Len=  602
 Leave Link  701 at Wed May 11 22:07:44 2022, MaxMem= 67108864000 cpu:              39.4 elap:               1.4
 (Enter /cm/shared/apps/gaussian/intel/EM64T/SSE4_2-enabled/binary//g16/l702.exe)
 L702 exits ... SP integral derivatives will be done elsewhere.
 Leave Link  702 at Wed May 11 22:07:44 2022, MaxMem= 67108864000 cpu:               0.5 elap:               0.0
 (Enter /cm/shared/apps/gaussian/intel/EM64T/SSE4_2-enabled/binary//g16/l703.exe)
 Integral derivatives from FoFJK, PRISM(SPDF).
 Compute integral second derivatives, UseDBF=F ICtDFT=           0.
 Calling FoFJK, ICntrl=  10100127 FMM=F ISym2X=0 I1Cent= 0 IOpClX= 0 NMat=1 NMatS=1 NMatT=0.
 FoFJK:  IHMeth= 1 ICntrl=10100127 DoSepK=F KAlg= 0 I1Cent=           0 FoldK=F
 IRaf=         0 NMat=       1 IRICut=       1 DoRegI=T DoRafI=F ISym2E= 0 IDoP0=0 IntGTp=1.
 FoFCou: FMM=F IPFlag=           0 FMFlag=      100000 FMFlg1=         800
         NFxFlg=           0 DoJE=F BraDBF=F KetDBF=F FulRan=T
         wScrn=  0.000000 ICntrl=  10100127 IOpCl=  0 I1Cent=           0 NGrid=           0
         NMat0=    1 NMatS0=      1 NMatT0=    0 NMatD0=    1 NMtDS0=    0 NMtDT0=    0
 Symmetry not used in FoFCou.
 Leave Link  703 at Wed May 11 22:07:45 2022, MaxMem= 67108864000 cpu:              20.4 elap:               0.8
 (Enter /cm/shared/apps/gaussian/intel/EM64T/SSE4_2-enabled/binary//g16/l716.exe)
 Dipole        =-6.22817242D-01-6.52500355D-02-4.44135114D-02
 Polarizability= 7.05208070D+01 1.00026701D+00 5.60051148D+01
                -3.28206926D-01-1.77670172D-01 4.53812115D+01
 Full mass-weighted force constant matrix:
 Low frequencies --- -352.3047 -329.9315 -314.6488 -156.5462 -103.5074  -94.3799
 Low frequencies ---  -74.2978  -35.0521  -28.8192
 ******    6 imaginary frequencies (negative Signs) ****** 
 Diagonal vibrational polarizability:
      245.0862976     335.3127572     314.6967175
 Harmonic frequencies (cm**-1), IR intensities (KM/Mole), Raman scattering
 activities (A**4/AMU), depolarization ratios for plane and unpolarized
 incident light, reduced masses (AMU), force constants (mDyne/A),
 and normal coordinates:
                      1                      2                      3
                      A                      A                      A
 Frequencies --   -351.4533              -329.5880              -314.0528
 Red. masses --      1.0214                 1.0226                 1.0332
 Frc consts  --      0.0743                 0.0654                 0.0600
 IR Inten    --     24.7311                25.0785                38.8333
  Atom  AN      X      Y      Z        X      Y      Z        X      Y      Z
     1  80    -0.00  -0.00   0.00     0.00  -0.00   0.00     0.00   0.00  -0.00
     2   1    -0.48   0.42   0.32     0.02  -0.02  -0.01     0.00   0.00  -0.01
     3   8    -0.00   0.01  -0.02     0.00  -0.00   0.01     0.00  -0.00  -0.01
     4   1     0.51  -0.46  -0.09    -0.02   0.02   0.01    -0.00  -0.01  -0.01
     5   1     0.00  -0.01   0.06    -0.00  -0.00  -0.00     0.00  -0.00  -0.00
     6   8     0.00   0.00   0.01    -0.01   0.00  -0.01    -0.00  -0.00  -0.00
     7   1     0.00  -0.00   0.01    -0.01  -0.00  -0.07    -0.00  -0.00  -0.02
     8   1     0.00  -0.00   0.00     0.00  -0.02   0.02    -0.01  -0.02   0.01
     9   8     0.00  -0.00   0.00    -0.00   0.00  -0.00     0.00  -0.02   0.00
    10   1    -0.00   0.00   0.00     0.00   0.02   0.00    -0.01  -0.05   0.02
    11   1     0.02   0.01  -0.02     0.30   0.30  -0.22     0.10   0.11  -0.06
    12   8    -0.00   0.00  -0.01     0.00   0.00   0.02    -0.00  -0.00   0.01
    13   1    -0.02  -0.01  -0.01    -0.37  -0.32   0.01    -0.13  -0.12   0.02
    14   1     0.00   0.00   0.01     0.11   0.08   0.43     0.03   0.03   0.13
    15   8     0.00  -0.00  -0.01     0.02   0.00  -0.01     0.00  -0.00   0.01
    16   1    -0.01  -0.01  -0.03    -0.23  -0.12  -0.40    -0.05  -0.03  -0.08
    17   1    -0.01   0.01   0.01    -0.10   0.09   0.16     0.30  -0.28  -0.53
    18   8    -0.00   0.00   0.01    -0.00  -0.00   0.00     0.00   0.03  -0.01
    19   1     0.01   0.01  -0.00     0.10   0.00  -0.17    -0.34   0.01   0.59
                      4                      5                      6
                      A                      A                      A
 Frequencies --   -147.5973               -99.0133               -85.8066
 Red. masses --      1.4914                 2.2327                 2.6770
 Frc consts  --      0.0191                 0.0129                 0.0116
 IR Inten    --     13.8471                35.4038                21.9826
  Atom  AN      X      Y      Z        X      Y      Z        X      Y      Z
     1  80    -0.00  -0.00  -0.00    -0.00  -0.01  -0.01     0.00   0.01  -0.02
     2   1    -0.07  -0.08   0.15    -0.07  -0.09   0.07    -0.09  -0.20   0.25
     3   8    -0.00  -0.02   0.08    -0.00  -0.02  -0.00     0.02  -0.07   0.12
     4   1     0.08   0.03   0.14     0.08   0.02   0.06     0.17   0.03   0.24
     5   1    -0.01  -0.01  -0.03    -0.03   0.00  -0.11    -0.01  -0.03  -0.07
     6   8    -0.02   0.01  -0.06    -0.05   0.02  -0.13    -0.02  -0.02  -0.10
     7   1    -0.03  -0.00  -0.17    -0.05   0.01  -0.19    -0.02  -0.02  -0.13
     8   1    -0.01   0.03  -0.03     0.00  -0.27   0.19     0.08   0.37  -0.13
     9   8    -0.00   0.00  -0.01     0.01  -0.12   0.06     0.02   0.17   0.03
    10   1     0.00  -0.01  -0.02     0.01  -0.02   0.07    -0.01   0.06   0.05
    11   1     0.20   0.35  -0.19    -0.12   0.35   0.41    -0.10   0.15   0.25
    12   8    -0.00   0.01  -0.08     0.05   0.06   0.12     0.02  -0.00   0.07
    13   1    -0.22  -0.33  -0.02     0.36  -0.19   0.33     0.21  -0.14   0.19
    14   1    -0.05  -0.06  -0.11    -0.01  -0.02  -0.06    -0.00   0.03  -0.07
    15   8    -0.00  -0.00   0.12     0.00  -0.01  -0.02    -0.01   0.01  -0.08
    16   1     0.24   0.21   0.63     0.01  -0.01  -0.02    -0.03  -0.04  -0.15
    17   1     0.01   0.01  -0.02    -0.10   0.23  -0.02     0.12  -0.28   0.20
    18   8     0.02  -0.00  -0.03     0.02   0.13   0.04    -0.04  -0.15   0.10
    19   1     0.04  -0.00  -0.06     0.17   0.22   0.05    -0.24  -0.27   0.10
                      7                      8                      9
                      A                      A                      A
 Frequencies --     30.2469                50.9747                60.1073
 Red. masses --      4.8832                 5.2673                 4.9628
 Frc consts  --      0.0026                 0.0081                 0.0106
 IR Inten    --      6.3998                 7.8354                 8.0833
  Atom  AN      X      Y      Z        X      Y      Z        X      Y      Z
     1  80    -0.02   0.04   0.01    -0.01  -0.00   0.06    -0.04  -0.02   0.02
     2   1     0.29  -0.29   0.03    -0.08   0.01  -0.14     0.24  -0.14  -0.11
     3   8     0.31  -0.14  -0.02    -0.07  -0.02  -0.15     0.20  -0.10  -0.08
     4   1     0.43  -0.15   0.03    -0.06  -0.04  -0.16     0.21  -0.16  -0.11
     5   1     0.04   0.03  -0.03    -0.06  -0.03  -0.15    -0.00  -0.00   0.01
     6   8    -0.03   0.06  -0.01    -0.07  -0.02  -0.15    -0.03   0.01   0.04
     7   1    -0.05   0.04   0.00    -0.07  -0.03  -0.23    -0.00   0.03  -0.01
     8   1    -0.11  -0.40   0.16    -0.01   0.22  -0.01    -0.03   0.25  -0.16
     9   8    -0.02  -0.23   0.03     0.00   0.11   0.09    -0.06   0.14  -0.07
    10   1     0.00  -0.19   0.01     0.10   0.05   0.02    -0.06   0.11  -0.08
    11   1    -0.08  -0.05  -0.04    -0.07   0.22   0.07     0.22   0.21  -0.03
    12   8    -0.06   0.03  -0.03    -0.01   0.01  -0.07     0.20   0.11  -0.04
    13   1    -0.06   0.10  -0.05     0.12  -0.17   0.04     0.23   0.11  -0.03
    14   1    -0.04   0.00   0.02    -0.04   0.01  -0.22     0.30   0.16  -0.09
    15   8    -0.04   0.02  -0.01    -0.05  -0.01  -0.16     0.25   0.00  -0.01
    16   1    -0.09   0.02  -0.07     0.00  -0.05  -0.16     0.40  -0.11   0.01
    17   1     0.03  -0.20  -0.02     0.33  -0.11  -0.30    -0.07   0.09  -0.03
    18   8     0.03  -0.21  -0.03     0.28  -0.06  -0.22    -0.09   0.11  -0.04
    19   1     0.05  -0.22  -0.08     0.25  -0.10  -0.31    -0.11   0.10  -0.01
                     10                     11                     12
                      A                      A                      A
 Frequencies --    103.0132               113.3574               121.4356
 Red. masses --      4.7983                 5.2145                 4.6763
 Frc consts  --      0.0300                 0.0395                 0.0406
 IR Inten    --      0.4396                 5.5628                 5.4543
  Atom  AN      X      Y      Z        X      Y      Z        X      Y      Z
     1  80    -0.03   0.04  -0.02    -0.03  -0.05  -0.05    -0.02   0.02  -0.02
     2   1    -0.18  -0.13   0.13     0.11   0.00   0.07     0.00  -0.04  -0.04
     3   8    -0.13  -0.10   0.07     0.12   0.10   0.05    -0.05  -0.11   0.03
     4   1    -0.09  -0.02   0.13     0.18   0.11   0.08    -0.14  -0.16  -0.04
     5   1    -0.00  -0.14  -0.03    -0.03   0.18   0.05     0.01  -0.17   0.10
     6   8    -0.00  -0.14  -0.01     0.00   0.15   0.05     0.01  -0.16   0.12
     7   1    -0.02  -0.13   0.09     0.04   0.19   0.16     0.02  -0.18   0.15
     8   1     0.01  -0.19   0.21     0.18   0.24   0.15     0.07  -0.01   0.13
     9   8     0.01  -0.06   0.10     0.05   0.11   0.24     0.03   0.01   0.11
    10   1     0.02  -0.01   0.10     0.07   0.09   0.26     0.03   0.02   0.11
    11   1    -0.00  -0.42  -0.06    -0.10  -0.23  -0.08     0.35   0.02  -0.16
    12   8     0.01  -0.22  -0.01    -0.11   0.08   0.04     0.29   0.13  -0.06
    13   1     0.00   0.01  -0.10    -0.20   0.36  -0.10     0.18   0.26  -0.14
    14   1     0.36   0.22   0.02     0.07   0.12   0.20    -0.23  -0.30   0.20
    15   8     0.30   0.06   0.03     0.03   0.05   0.11    -0.16  -0.10   0.06
    16   1     0.35  -0.12  -0.14    -0.02  -0.02  -0.04    -0.35   0.02   0.03
    17   1     0.09   0.00  -0.02     0.23   0.03  -0.05     0.11  -0.02   0.02
    18   8     0.11  -0.01   0.01     0.22   0.04   0.04     0.10  -0.01   0.04
    19   1     0.14  -0.01  -0.03     0.22   0.03  -0.00     0.11  -0.02   0.01
                     13                     14                     15
                      A                      A                      A
 Frequencies --    152.6073               223.9522               266.5931
 Red. masses --      1.9713                 5.7190                 1.7042
 Frc consts  --      0.0270                 0.1690                 0.0714
 IR Inten    --     10.4222                 8.5778                16.0156
  Atom  AN      X      Y      Z        X      Y      Z        X      Y      Z
     1  80    -0.01   0.01  -0.01    -0.00  -0.03   0.00     0.01  -0.00   0.00
     2   1     0.17   0.24  -0.18     0.03   0.05  -0.00    -0.14  -0.26   0.08
     3   8     0.04   0.04  -0.02     0.02   0.03   0.01    -0.04  -0.06  -0.04
     4   1    -0.16  -0.09  -0.19     0.01   0.02  -0.00     0.11   0.07   0.11
     5   1     0.06  -0.02   0.18     0.04  -0.04  -0.01    -0.05   0.03  -0.14
     6   8     0.04   0.01   0.14     0.05  -0.02  -0.01    -0.01  -0.03  -0.02
     7   1     0.01  -0.02  -0.02     0.06  -0.01  -0.06     0.03   0.01   0.26
     8   1     0.03   0.01   0.04    -0.04   0.07  -0.03     0.00   0.05  -0.05
     9   8     0.01  -0.01   0.05    -0.04  -0.04   0.06     0.00  -0.01   0.01
    10   1    -0.00  -0.01   0.05    -0.01  -0.08   0.07     0.00  -0.05   0.01
    11   1     0.14   0.36   0.04     0.15  -0.03   0.00     0.29  -0.17  -0.30
    12   8     0.00  -0.07   0.05     0.17  -0.11  -0.05    -0.02   0.08   0.12
    13   1    -0.10  -0.48   0.17     0.21  -0.19   0.00    -0.49   0.29  -0.13
    14   1    -0.01   0.01  -0.31    -0.18   0.25   0.00    -0.00   0.06  -0.15
    15   8    -0.00  -0.03  -0.14    -0.10   0.49  -0.01    -0.01   0.04  -0.11
    16   1     0.27   0.13   0.31    -0.30   0.58  -0.08     0.18   0.21   0.28
    17   1     0.03  -0.02   0.07    -0.10   0.03  -0.11    -0.06   0.05  -0.02
    18   8     0.03  -0.02   0.05    -0.04  -0.02  -0.03    -0.01   0.01   0.01
    19   1     0.04  -0.03   0.01     0.03   0.04   0.02     0.05   0.05   0.03
                     16                     17                     18
                      A                      A                      A
 Frequencies --    270.2310               311.5661               363.9950
 Red. masses --      3.1081                 1.1832                 1.8284
 Frc consts  --      0.1337                 0.0677                 0.1427
 IR Inten    --     14.9277                88.8348                14.3536
  Atom  AN      X      Y      Z        X      Y      Z        X      Y      Z
     1  80     0.02  -0.01  -0.01     0.00   0.01  -0.00    -0.01  -0.00   0.00
     2   1     0.08   0.18  -0.19     0.01   0.01  -0.00    -0.23  -0.44   0.21
     3   8    -0.08  -0.19   0.03     0.00  -0.00   0.01    -0.01   0.03  -0.08
     4   1    -0.38  -0.41  -0.23    -0.01  -0.01  -0.00     0.33   0.40   0.29
     5   1     0.02  -0.11   0.26     0.01  -0.01   0.01    -0.03   0.01  -0.22
     6   8    -0.02  -0.05   0.09     0.01  -0.00   0.00    -0.00  -0.06   0.13
     7   1    -0.08  -0.11  -0.09    -0.01  -0.01  -0.01     0.01  -0.05  -0.02
     8   1     0.02   0.01  -0.01     0.00   0.45  -0.34     0.04   0.07  -0.16
     9   8     0.02  -0.00  -0.00    -0.01  -0.02   0.07     0.04  -0.01  -0.09
    10   1     0.03  -0.01   0.02    -0.01  -0.35   0.10    -0.01  -0.08  -0.12
    11   1    -0.29   0.39   0.17    -0.03  -0.00   0.02    -0.14   0.22   0.12
    12   8    -0.16   0.19  -0.04    -0.00  -0.01  -0.01    -0.04   0.02  -0.05
    13   1     0.06   0.02   0.10     0.03  -0.02   0.01     0.13  -0.17   0.08
    14   1     0.04   0.11  -0.01     0.01  -0.04   0.03    -0.00   0.03  -0.02
    15   8     0.05   0.12   0.03     0.01  -0.03   0.00     0.00   0.03   0.01
    16   1     0.01   0.06  -0.09    -0.02  -0.04  -0.03    -0.03  -0.03  -0.10
    17   1    -0.00  -0.01   0.00    -0.38   0.22  -0.35     0.02   0.04   0.01
    18   8    -0.00  -0.01  -0.00    -0.04  -0.05  -0.02     0.07  -0.00   0.06
    19   1    -0.01  -0.01   0.01     0.34   0.25   0.18     0.15   0.06   0.13
                     19                     20                     21
                      A                      A                      A
 Frequencies --    371.5821               391.8623               466.6966
 Red. masses --      2.7356                 4.6782                 1.2279
 Frc consts  --      0.2225                 0.4232                 0.1576
 IR Inten    --    180.4021               114.8702                78.9435
  Atom  AN      X      Y      Z        X      Y      Z        X      Y      Z
     1  80     0.02   0.00  -0.01     0.01  -0.00  -0.00    -0.00  -0.00  -0.00
     2   1    -0.19  -0.30   0.15    -0.20  -0.39   0.03     0.01   0.05  -0.00
     3   8    -0.02   0.01  -0.06    -0.14  -0.23  -0.06     0.01   0.01   0.01
     4   1     0.20   0.28   0.20    -0.07  -0.15   0.02    -0.02   0.00  -0.01
     5   1     0.02   0.04  -0.15    -0.07   0.47   0.08     0.01  -0.02   0.00
     6   8     0.04  -0.03   0.09    -0.09   0.35   0.11     0.03  -0.03  -0.02
     7   1     0.04  -0.04  -0.00    -0.03   0.42  -0.02     0.08   0.01  -0.01
     8   1    -0.05  -0.16   0.37     0.03   0.03  -0.04    -0.04  -0.14   0.11
     9   8    -0.07   0.02   0.20     0.03   0.01  -0.02     0.02   0.02  -0.01
    10   1     0.04   0.17   0.29     0.04  -0.01   0.00     0.00  -0.05   0.03
    11   1    -0.07   0.15   0.07     0.09  -0.12   0.00     0.02  -0.03  -0.03
    12   8    -0.02   0.02  -0.03     0.10  -0.12  -0.01     0.02   0.02  -0.00
    13   1     0.06  -0.13   0.06     0.11  -0.15   0.01    -0.07  -0.05  -0.00
    14   1     0.01   0.01  -0.07     0.01   0.18  -0.02     0.11   0.62  -0.22
    15   8     0.01  -0.03   0.01    -0.06  -0.01   0.02    -0.09   0.01   0.04
    16   1     0.05  -0.08  -0.03     0.07  -0.16  -0.04     0.43  -0.51  -0.12
    17   1    -0.05  -0.08  -0.05    -0.00   0.01   0.02    -0.09   0.04  -0.08
    18   8    -0.16   0.01  -0.15     0.01   0.00   0.00    -0.00  -0.02   0.00
    19   1    -0.31  -0.12  -0.27     0.01   0.01   0.02     0.10   0.06   0.05
                     22                     23                     24
                      A                      A                      A
 Frequencies --    495.8202               577.4467               616.5191
 Red. masses --      1.4187                 4.0590                 1.3724
 Frc consts  --      0.2055                 0.7974                 0.3073
 IR Inten    --     70.7879                66.3668               492.1350
  Atom  AN      X      Y      Z        X      Y      Z        X      Y      Z
     1  80     0.00   0.00  -0.00    -0.00  -0.00   0.00    -0.01   0.00   0.00
     2   1    -0.00   0.01  -0.00    -0.25   0.14   0.12    -0.34   0.51   0.20
     3   8    -0.00  -0.00  -0.00    -0.01  -0.10  -0.04     0.06  -0.07  -0.03
     4   1    -0.01   0.00  -0.00    -0.21   0.26   0.11    -0.37   0.52   0.17
     5   1     0.02  -0.01  -0.01     0.29   0.07  -0.03     0.11  -0.03  -0.04
     6   8     0.02  -0.01  -0.01     0.29   0.06  -0.05     0.03   0.02  -0.01
     7   1     0.03  -0.00  -0.00     0.21   0.02  -0.04    -0.02  -0.01   0.01
     8   1     0.10   0.54  -0.48    -0.29  -0.13   0.12     0.09   0.03  -0.03
     9   8    -0.07  -0.12   0.04    -0.28   0.04  -0.03     0.10  -0.01   0.00
    10   1     0.02   0.06  -0.14    -0.34   0.02  -0.08     0.12  -0.02   0.02
    11   1    -0.01  -0.02   0.01    -0.09   0.01   0.05     0.08   0.13  -0.04
    12   8     0.00   0.01  -0.00    -0.02   0.03  -0.02    -0.01  -0.02   0.01
    13   1    -0.01  -0.02   0.01     0.03  -0.03   0.03     0.05   0.14  -0.03
    14   1     0.05   0.19  -0.02     0.03  -0.04   0.16    -0.02  -0.05  -0.05
    15   8    -0.02  -0.00   0.01     0.01  -0.03  -0.01     0.00   0.00   0.01
    16   1     0.12  -0.16  -0.04    -0.06   0.09   0.07    -0.03  -0.00  -0.03
    17   1     0.26  -0.11   0.37     0.07  -0.03  -0.27    -0.04   0.03   0.13
    18   8     0.02   0.06  -0.01     0.07  -0.01   0.12    -0.02   0.00  -0.04
    19   1    -0.29  -0.16  -0.10     0.25   0.03  -0.10    -0.08   0.01   0.09
                     25                     26                     27
                      A                      A                      A
 Frequencies --    637.8461               657.1854               671.6103
 Red. masses --      2.7153                 1.1550                 1.3213
 Frc consts  --      0.6509                 0.2939                 0.3511
 IR Inten    --    207.6584                80.0005               465.1585
  Atom  AN      X      Y      Z        X      Y      Z        X      Y      Z
     1  80    -0.03   0.00   0.01     0.00  -0.00   0.00     0.01  -0.00  -0.00
     2   1     0.12  -0.35  -0.09    -0.06   0.13   0.04    -0.02   0.06   0.02
     3   8    -0.06  -0.01  -0.00     0.02  -0.01  -0.00     0.01   0.00   0.00
     4   1     0.18  -0.28  -0.07    -0.07   0.11   0.03    -0.03   0.05   0.02
     5   1     0.14   0.09   0.01    -0.02  -0.03  -0.01    -0.03  -0.02  -0.00
     6   8     0.23   0.03  -0.05    -0.05  -0.01   0.02    -0.05  -0.01   0.01
     7   1     0.23   0.03  -0.06    -0.00   0.01  -0.11    -0.03  -0.00  -0.04
     8   1     0.13  -0.01  -0.01     0.04   0.01  -0.01    -0.19  -0.10   0.10
     9   8     0.17  -0.01   0.00     0.02  -0.01  -0.00    -0.09   0.03   0.01
    10   1     0.21  -0.02   0.00    -0.02   0.00   0.03     0.01  -0.01  -0.10
    11   1    -0.20  -0.23   0.11    -0.21  -0.28   0.12    -0.06  -0.09   0.04
    12   8     0.00   0.05  -0.02     0.02   0.02  -0.02     0.01   0.00  -0.01
    13   1    -0.07  -0.26   0.07     0.03  -0.13   0.04     0.02  -0.02   0.01
    14   1     0.05  -0.00   0.24     0.21   0.32   0.62     0.07   0.11   0.21
    15   8     0.01  -0.02  -0.02    -0.02  -0.02  -0.06    -0.01  -0.01  -0.02
    16   1    -0.04   0.15   0.13     0.11   0.18   0.33     0.04   0.06   0.12
    17   1    -0.10   0.09   0.31     0.05  -0.06  -0.20    -0.15   0.19   0.56
    18   8    -0.02  -0.01  -0.08    -0.02   0.01   0.02     0.05  -0.03  -0.06
    19   1    -0.14   0.05   0.28     0.02  -0.05  -0.23    -0.05   0.15   0.65
                     28                     29                     30
                      A                      A                      A
 Frequencies --    709.6138               970.0968              1078.6308
 Red. masses --      1.1489                 1.0557                 1.0517
 Frc consts  --      0.3409                 0.5853                 0.7209
 IR Inten    --    427.3270                35.4962               169.7424
  Atom  AN      X      Y      Z        X      Y      Z        X      Y      Z
     1  80    -0.00  -0.00   0.00     0.00   0.00   0.00     0.00   0.00   0.00
     2   1     0.06  -0.14  -0.04    -0.00   0.00  -0.00     0.01   0.09  -0.01
     3   8    -0.02   0.01   0.00    -0.00  -0.00  -0.00     0.01  -0.01   0.01
     4   1     0.09  -0.10  -0.03     0.00  -0.00   0.00    -0.06  -0.03  -0.03
     5   1     0.03   0.01   0.01     0.01  -0.01  -0.01    -0.27   0.19  -0.17
     6   8     0.03   0.00  -0.01    -0.00   0.00  -0.00    -0.00  -0.02  -0.03
     7   1    -0.05  -0.04   0.01    -0.01  -0.00  -0.01     0.21   0.19   0.83
     8   1    -0.00  -0.01   0.00     0.84   0.05   0.15     0.01  -0.00   0.00
     9   8     0.01  -0.00   0.00    -0.03  -0.02  -0.03     0.00   0.00   0.00
    10   1     0.01  -0.01  -0.00    -0.40   0.23   0.15    -0.01   0.00  -0.00
    11   1     0.21   0.53  -0.07    -0.00   0.00  -0.00    -0.06   0.16   0.08
    12   8    -0.04  -0.07   0.00    -0.00  -0.00  -0.00    -0.01  -0.00  -0.04
    13   1     0.35   0.55  -0.10     0.00   0.00  -0.00     0.08  -0.17   0.06
    14   1     0.11   0.20   0.31     0.00   0.01   0.00     0.02   0.02   0.06
    15   8    -0.03  -0.01  -0.02    -0.00   0.00  -0.00    -0.00  -0.00  -0.00
    16   1     0.08   0.04   0.15     0.01  -0.00   0.01    -0.02   0.02   0.01
    17   1    -0.01   0.00   0.01    -0.07   0.04   0.00    -0.00   0.00   0.00
    18   8    -0.00   0.00  -0.00     0.00  -0.02  -0.02    -0.00  -0.00  -0.00
    19   1    -0.00   0.00   0.00     0.04   0.05   0.11     0.00   0.00   0.00
                     31                     32                     33
                      A                      A                      A
 Frequencies --   1210.0494              1330.9376              1407.0686
 Red. masses --      1.0517                 1.0537                 1.0668
 Frc consts  --      0.9073                 1.0997                 1.2444
 IR Inten    --    140.9564               192.8872               303.4398
  Atom  AN      X      Y      Z        X      Y      Z        X      Y      Z
     1  80    -0.00   0.00   0.00     0.00   0.00   0.00     0.00   0.00   0.00
     2   1    -0.01   0.06   0.00    -0.08  -0.16   0.07    -0.00  -0.00   0.00
     3   8     0.01  -0.01   0.01     0.01   0.01  -0.04     0.00   0.00  -0.00
     4   1    -0.05  -0.02  -0.02     0.04   0.16   0.08     0.00   0.00   0.00
     5   1    -0.49   0.21  -0.04    -0.24  -0.04   0.92    -0.01   0.01   0.02
     6   8     0.00  -0.04   0.02     0.00  -0.01  -0.04     0.00  -0.00  -0.00
     7   1     0.62   0.32  -0.43     0.02  -0.01   0.12     0.01  -0.00  -0.00
     8   1     0.01   0.00   0.00     0.00   0.00   0.00    -0.07  -0.04  -0.03
     9   8    -0.00  -0.00   0.00     0.00  -0.00   0.00     0.00   0.01  -0.04
    10   1    -0.02   0.00  -0.02    -0.01   0.01  -0.03    -0.30  -0.59   0.67
    11   1     0.05   0.01  -0.04    -0.01   0.02   0.01    -0.00  -0.00   0.00
    12   8    -0.01  -0.01   0.01    -0.00  -0.00  -0.00    -0.00  -0.00   0.00
    13   1     0.03   0.10  -0.02     0.01  -0.03   0.01     0.00  -0.00   0.00
    14   1    -0.01  -0.03  -0.03     0.00   0.00   0.01    -0.00  -0.01   0.01
    15   8     0.00  -0.00   0.00    -0.00   0.00  -0.00     0.00   0.00  -0.00
    16   1    -0.04   0.03  -0.01     0.00   0.00   0.00    -0.00   0.00   0.00
    17   1    -0.00  -0.00  -0.00     0.00  -0.00  -0.00     0.04   0.02   0.17
    18   8    -0.00   0.00  -0.00    -0.00  -0.00  -0.00     0.03   0.03  -0.01
    19   1     0.00   0.00  -0.00     0.01   0.00   0.00    -0.21  -0.12  -0.07
                     34                     35                     36
                      A                      A                      A
 Frequencies --   1524.7800              1707.1223              1723.3107
 Red. masses --      1.1241                 1.0817                 1.0876
 Frc consts  --      1.5398                 1.8574                 1.9030
 IR Inten    --   2986.2804                57.1749               225.8901
[...]
 62,0.00518180,-0.00488169,0.08398196,-0.07753494,-0.13075564,-0.095642
 13,0.07326019,0.00053155,0.00008629,0.00023237,0.02857186,-0.01763078,
 -0.03056347,0.14373368,-0.12520515,-0.31179418,-0.17233846,0.14207166,
 0.33797347,-0.02041556,0.00094992,0.00102004,0.00110504,-0.00069060,-0
 .00532388,-0.00390173,-0.01837061,0.00662888,0.00149883,0.00332404,0.0
 0457178,0.13795936,0.00149394,0.00896328,-0.00331700,-0.00728722,0.008
 59495,0.00316260,-0.00786007,-0.01029177,-0.01080489,-0.00178738,0.000
 53582,-0.00254077,-0.04142769,0.11679539,0.00567107,-0.00248940,0.0017
 0358,-0.00527077,0.00671367,0.00042296,0.00212144,-0.00830328,-0.03349
 765,0.00968388,-0.00864946,0.00700887,0.01945665,-0.01277468,0.0647630
 4,-0.14992818,-0.04422968,0.03994401,-0.00169101,0.00379776,0.00382952
 ,-0.03223974,0.03829885,-0.01099085,-0.00223047,0.00047061,-0.00484590
 ,-0.13842781,0.04093011,-0.03772743,0.39319130,-0.03297514,-0.04133870
 ,0.01426386,0.00329401,-0.00548177,-0.00248133,0.03675031,-0.01813907,
 0.01070888,0.00183013,-0.00175881,0.00318087,0.06432232,-0.11429607,0.
 03298295,-0.00550182,0.51768361,0.02987053,0.01261210,-0.02338929,0.00
 109791,-0.00077819,0.00031344,-0.00961831,0.00914509,0.01078567,-0.002
 65573,0.00244020,-0.00329649,-0.02790668,0.01558066,-0.04287018,0.0201
 4035,-0.02109821,0.07399674,-0.00949770,-0.01886441,0.00119770,-0.0006
 7715,0.00139627,-0.00018498,-0.00653629,0.00223981,-0.00193849,-0.0002
 3870,0.00070336,-0.00011743,0.02036040,0.01969896,0.00563025,-0.078847
 14,-0.05899971,-0.01032885,0.08847280,-0.01318590,0.00672658,0.0008916
 8,0.00035960,-0.00003883,0.00024318,-0.00325774,0.00303272,-0.00022444
 ,0.00032433,-0.00003166,-0.00020877,0.00096824,-0.01175272,-0.00471285
 ,-0.04148815,-0.29748967,-0.01451440,0.05075986,0.29363614,0.00535725,
 0.00635063,0.00102480,-0.00057959,0.00067131,0.00017612,-0.00113036,0.
 00026339,-0.00075769,-0.00016331,-0.00031585,0.00033749,0.00200660,0.0
 1004187,0.00232767,-0.01129886,-0.03569286,-0.02892824,0.00626010,0.01
 728339,0.04349408,-0.00663944,-0.01350109,0.01504023,-0.00008227,-0.00
 005166,0.00004746,0.00006809,0.00018943,-0.00012581,-0.00003412,-0.000
 02955,0.00003259,-0.00013817,-0.00030756,0.00016685,0.00017790,0.00111
 924,-0.00135653,-0.00002874,-0.00038439,-0.00013222,0.04064954,0.00041
 096,-0.00199914,0.00378008,0.00000067,0.00008716,-0.00002502,0.0001866
 2,-0.00042194,0.00007591,0.00001972,0.00010690,0.00000474,-0.00058028,
 0.00054903,-0.00012043,0.00113646,0.00075344,-0.00019695,0.00003300,-0
 .00041354,-0.00001536,0.01562570,0.22703956,-0.00011179,0.00500373,0.0
 0098730,-0.00001057,-0.00001862,0.00011675,-0.00035049,0.00026377,-0.0
 0020500,0.00007834,-0.00001336,0.00001383,0.00067671,-0.00052821,0.000
 23465,-0.00106877,-0.00084110,-0.00000118,-0.00002551,0.00073359,0.000
 18265,0.01128407,-0.23664681,0.28807116,-0.13535482,-0.02664394,0.0200
 8657,0.00020802,-0.00006652,0.00014333,-0.00136562,0.00097357,-0.00012
 964,0.00014221,-0.00018154,-0.00019170,0.00377589,-0.00175310,0.000045
 58,0.00600028,-0.00686475,-0.00035492,-0.00093057,0.00441748,0.0006005
 9,-0.03980336,-0.01414789,-0.01104677,0.26315573,-0.05954297,-0.029777
 71,0.01737189,0.00002131,-0.00012669,0.00006683,-0.00050397,0.00087346
 ,-0.00015205,-0.00004063,-0.00019096,-0.00006746,0.00118305,-0.0015385
 4,0.00054200,0.00244185,0.00478555,-0.00179956,0.00095874,0.00012557,-
 0.00041954,-0.01778982,-0.23082591,0.21193899,0.09921011,0.30830600,0.
 02985706,0.01458185,-0.03524373,0.00017077,0.00000534,-0.00012010,-0.0
 0020949,0.00008236,0.00020653,-0.00001602,-0.00009804,-0.00010963,0.00
 076522,0.00003716,0.00009549,-0.00140964,-0.00067302,0.00624038,0.0004
 1233,0.00058088,0.00027736,-0.01127732,0.24291854,-0.27553877,0.058714
 32,-0.22530412,0.42788791,-0.01722882,-0.01200839,0.00075255,-0.000212
 61,0.00002499,-0.00006956,0.00121047,-0.00088067,0.00008284,-0.0001477
 2,0.00013129,0.00017987,-0.00225166,0.00186712,-0.00035701,0.00349129,
 0.00183870,-0.00033655,-0.00005109,-0.00247475,0.00008750,0.01101333,0
 .00075735,0.00367149,-0.06100218,-0.00945949,-0.02857178,0.07671333,-0
 .00469286,-0.00101851,-0.00101974,-0.00005829,0.00005091,-0.00001367,0
 .00035301,-0.00043689,0.00001119,0.00000428,0.00010481,0.00005975,-0.0
 0081989,0.00074376,-0.00007871,0.00124730,0.00063482,-0.00014491,-0.00
 003752,-0.00053693,-0.00003713,0.01897238,0.00698718,0.02485890,-0.032
 42757,-0.05626574,-0.01830114,0.00496181,0.08327100,-0.00252445,-0.008
 59196,0.01361340,-0.00024661,0.00004066,-0.00002477,0.00125286,-0.0010
 2574,-0.00001393,-0.00008335,0.00019099,0.00024364,-0.00252743,0.00201
 130,-0.00033482,0.00293095,0.00264009,-0.00157792,0.00013375,-0.002756
 28,-0.00007212,-0.00906516,-0.00726112,-0.01200313,-0.01657125,0.01553
 382,-0.08338643,0.00533880,-0.00980273,0.08030569,0.00044660,-0.000830
 53,-0.00043104,0.00007062,0.00030921,-0.00009506,-0.00039795,-0.000252
 49,0.00000899,0.00006348,0.00019917,0.00003355,0.00062596,-0.00010037,
 0.00002910,-0.00024644,0.00152052,0.00008856,0.00066139,-0.00026141,0.
 00013353,0.00001085,-0.00004537,0.00000434,0.00006459,0.00019703,0.000
 07538,-0.00010172,-0.00007349,-0.00012252,0.16916278,-0.00081104,0.000
 10653,-0.00035007,0.00011968,-0.00053971,0.00006543,0.00044813,0.00054
 753,0.00019374,-0.00003164,-0.00026105,-0.00009009,-0.00091326,-0.0008
 5228,-0.00056336,0.00160516,-0.00367600,0.00206920,-0.00554093,0.00235
 287,-0.00673296,-0.00003783,-0.00002376,0.00002959,0.00022238,0.000028
 76,0.00009707,-0.00019482,-0.00003601,-0.00020940,0.12952247,0.1170019
 3,-0.00049654,0.00005423,0.00069354,-0.00008217,0.00006014,0.00020856,
 -0.00012669,0.00026202,-0.00032844,-0.00000152,-0.00012651,0.00007693,
 0.00029945,-0.00016577,0.00038809,0.00084430,0.00391525,-0.00084038,-0
 .00082418,-0.00475120,0.00223808,0.00000546,0.00001361,0.00007907,0.00
 013601,-0.00001583,-0.00010954,-0.00003190,-0.00000876,0.00000238,0.18
 473945,0.13134398,0.28386849,-0.00225795,0.00497425,0.00000333,-0.0000
 0222,-0.00075822,0.00024955,0.00131402,0.00053686,0.00002469,-0.000101
 05,-0.00058492,0.00000892,-0.00260168,-0.00059821,-0.00047644,0.009192
 60,-0.00602792,0.00045259,-0.01483733,-0.00407183,-0.00175334,-0.00007
 628,0.00006118,-0.00007696,-0.00009096,-0.00081197,0.00000949,0.000262
 59,0.00024930,0.00023316,-0.17529086,-0.13132383,-0.15145973,0.2429762
 0,0.00898569,-0.00229834,-0.00192198,0.00001983,0.00011921,-0.00037994
 ,0.00244872,-0.00237151,0.00080703,-0.00004509,0.00032106,0.00020323,-
 0.00708291,0.00116660,-0.00149620,-0.00862485,-0.03965719,0.00078495,0
 .00714616,0.00950780,-0.00053116,0.00020842,0.00019759,-0.00038718,-0.
 00195222,0.00008998,-0.00028925,0.00127196,0.00024917,0.00137506,-0.12
 602677,-0.12585439,-0.10569886,0.19604459,0.27502298,0.00004492,-0.001
 19546,-0.00167137,0.00017853,-0.00026722,-0.00022773,0.00019453,-0.000
 07482,0.00049647,-0.00002834,0.00013043,-0.00018158,-0.00053440,-0.000
 58563,-0.00056377,0.00062457,-0.00184389,0.00980327,-0.00185388,0.0033
 2233,-0.02313035,-0.00001013,-0.00004485,-0.00006805,0.00008607,0.0002
 2795,0.00020150,-0.00017834,-0.00005997,-0.00028183,-0.19708426,-0.148
 12907,-0.25320905,0.09230826,-0.03290257,0.65504726,0.00082309,-0.0009
 0913,0.00052430,0.00004325,0.00021633,-0.00012030,-0.00034701,-0.00027
 512,0.00010722,0.00007180,0.00025623,-0.00001909,0.00051039,-0.0001757
 6,-0.00016394,-0.00105404,-0.00023730,-0.00019027,0.00164864,0.0016836
 9,0.00053544,0.00002829,-0.00001269,0.00002537,-0.00006814,0.00015695,
 -0.00009282,0.00000811,-0.00006423,0.00006363,0.00740457,0.00634822,-0
 .03348795,-0.05560733,-0.06498852,0.10666647,0.04801257,-0.00070614,0.
 00019147,0.00056015,-0.00001289,-0.00014784,0.00016055,0.00009750,0.00
 042895,-0.00023846,0.00002626,-0.00028526,0.00007689,-0.00016703,-0.00
 046525,0.00029813,0.00052219,-0.00235053,-0.00298320,-0.00237953,0.000
 42962,0.00971887,-0.00002950,-0.00002316,0.00006850,0.00023459,0.00000
 492,0.00003171,-0.00019176,-0.00003477,-0.00016917,-0.00314327,0.01060
 149,-0.02504552,-0.05372966,-0.11468446,0.18038489,0.05893153,0.105816
 97,0.00045900,0.00030731,0.00036197,-0.00002386,0.00014723,0.00002125,
 0.00008414,-0.00026612,-0.00009460,0.00003046,0.00002658,0.00011486,-0
 .00017301,0.00025367,0.00017970,-0.00116587,-0.00371486,-0.00137189,0.
 00157226,0.00412402,0.00232308,0.00001597,0.00003367,-0.00000835,-0.00
 024207,-0.00011119,-0.00012362,0.00019321,0.00005902,0.00026391,0.0138
 7076,0.02216354,-0.03397624,0.06110474,0.13947061,-0.38226686,-0.07636
 235,-0.16270969,0.41481141,0.00538215,-0.00140454,-0.00095090,0.000024
 18,0.00023096,-0.00007988,0.00006034,-0.00054966,0.00008094,0.00005354
 ,0.00018949,0.00002416,-0.00056103,0.00027414,0.00007666,-0.00227653,-
 0.00380301,0.00010852,-0.00145997,0.00733897,0.00085574,0.00019035,0.0
 0002453,0.00004390,0.00052431,0.00133266,-0.00007758,-0.00027246,-0.00
 024038,-0.00032139,-0.00180064,0.00002259,-0.00065250,0.00577978,-0.00
 430100,-0.00269675,-0.00021450,0.00010688,0.00158601,0.30568430,-0.003
 70816,-0.00437038,0.00018475,0.00004364,-0.00000709,0.00003571,-0.0005
 0625,0.00050095,-0.00009151,0.00001492,-0.00003469,-0.00005554,0.00113
 872,-0.00094046,0.00018840,-0.00076967,0.00094790,0.00010133,0.0034482
 1,-0.00014025,-0.00086857,-0.00020058,-0.00013476,-0.00006817,-0.00020
 580,-0.00067440,0.00039013,-0.00015750,-0.00005144,-0.00007762,-0.0019
 1851,0.00077423,-0.00014236,0.00042292,-0.00599822,0.00022562,-0.00182
 567,0.00080860,0.00084175,0.21075199,0.22311838,-0.00108714,0.00140344
 ,0.00248141,-0.00007588,0.00002186,0.00009858,0.00000368,0.00007863,-0
 .00016323,-0.00000056,-0.00004075,0.00006640,0.00008552,0.00004142,0.0
 0007814,0.00051947,0.00105996,-0.00126395,0.00055319,-0.00199295,0.001
 99308,-0.00002659,0.00004684,0.00001798,-0.00024807,-0.00038042,-0.000
 08309,0.00037083,0.00016588,0.00045449,-0.00259005,-0.00014173,0.00196
 370,-0.00347586,0.00129892,-0.00788771,0.00391802,0.00003011,0.0000898
 9,-0.05249747,-0.01766005,0.02661408,-0.00940145,0.00213176,0.00090758
 ,0.00003635,-0.00018782,0.00016075,-0.00102709,0.00150346,-0.00036202,
 -0.00001042,-0.00025337,-0.00011958,0.00187184,-0.00263679,0.00099068,
 -0.00484530,0.00510473,0.00092354,0.00221760,-0.00180394,-0.00100739,-
 0.00042598,-0.00016629,0.00008688,0.00164121,-0.00180941,0.00042384,-0
 .00050329,0.00090015,-0.00042117,-0.00009226,0.00041086,0.00081356,-0.
 00797480,-0.00190183,0.00258443,-0.00104091,0.00033320,-0.00097290,-0.
 28521447,-0.23201242,0.03057328,0.59353424,0.00220625,-0.02241241,0.00
 155947,-0.00013556,-0.00016499,-0.00011821,0.00128004,-0.00080330,0.00
 030269,-0.00016850,-0.00000737,0.00013382,-0.00192718,0.00247198,-0.00
 125489,0.00866979,0.00047316,-0.00137565,-0.00027587,-0.00520287,0.000
 32090,-0.00045208,-0.00023447,-0.00101498,-0.00551018,-0.00419408,0.00
 031383,0.00288009,0.00022928,0.00334122,0.00112634,-0.00033459,0.00027
 600,-0.00260081,0.00441749,0.00061574,0.00100955,-0.00038233,-0.000626
 31,-0.17977206,-0.22618474,0.00107448,0.05634042,0.39754134,0.00127957
 ,-0.00239673,-0.00763396,0.00010273,-0.00004762,-0.00015107,0.00015099
 ,-0.00029802,0.00027851,0.00000795,0.00003910,-0.00006773,-0.00014201,
 0.00056043,-0.00028067,0.00160246,-0.00180841,0.00166130,-0.00056897,0
 .00090926,-0.00154060,-0.00007987,-0.00033731,-0.00022400,0.00095127,0
 .00070068,0.00200316,-0.00103955,0.00008561,-0.00169061,0.00137905,0.0
 0027037,-0.00127575,0.00347861,-0.00000439,0.00381386,-0.00160669,-0.0
 0008602,-0.00030805,0.05191157,0.02658456,-0.02596105,-0.22204411,0.09
 588496,0.15631034,0.00141081,0.00260692,0.00029554,-0.00003264,0.00006
 732,-0.00000381,0.00019467,-0.00029688,0.00001257,-0.00000146,0.000058
 70,0.00003112,-0.00034265,0.00047006,-0.00000659,0.00086976,-0.0006890
 9,-0.00032097,-0.00025659,0.00009956,0.00023115,0.00006202,0.00000261,
 -0.00004303,-0.00145768,-0.00002156,-0.00015149,0.00067598,-0.00031819
 ,0.00057621,-0.00062006,0.00008328,0.00032383,-0.00060434,-0.00071999,
 -0.00038619,-0.00020155,0.00004523,0.00010869,-0.02600518,0.02546024,0
 .02413452,-0.28906614,0.11851759,0.16402993,0.31572224,0.00336358,0.00
 027945,-0.00252896,0.00002778,-0.00000238,-0.00004054,0.00013916,-0.00
 021693,0.00010584,0.00000916,0.00002331,0.00000624,-0.00014429,0.00051
 033,-0.00030143,0.00180729,-0.00081223,0.00003271,-0.00027832,-0.00048
 646,-0.00004911,-0.00007974,-0.00028379,-0.00013559,-0.00102686,0.0006
 5037,0.00093229,-0.00037250,-0.00060518,-0.00047684,-0.00022532,0.0001
 3919,0.00002789,-0.00176949,-0.00008153,0.00017832,-0.00010541,0.00006
 563,0.00002201,-0.03022107,0.01238697,0.01504820,0.17403130,-0.1449211
 1,-0.12011671,-0.14523322,0.13328447,-0.00017851,0.00022125,0.00137766
 ,-0.00003297,0.00001025,0.00005808,-0.00004570,0.00008346,-0.00011650,
 0.00000639,-0.00001191,0.00003136,0.00004290,-0.00010850,0.00019895,-0
 .00072724,0.00036789,0.00012456,0.00011343,-0.00007110,0.00003731,-0.0
 0000177,0.00030798,0.00023390,-0.00014759,-0.00007108,-0.00093379,0.00
 043201,-0.00020010,0.00066155,-0.00008401,-0.00010295,0.00021002,-0.00
 053585,0.00023597,0.00002470,0.00022629,-0.00016805,0.00008123,0.00243
 438,-0.00960100,0.00167089,0.18728161,-0.09799383,-0.12555285,-0.18850
 010,0.10714184,0.12211471,-0.00071156,-0.00007328,-0.00022275,-0.00001
 994,0.00000305,-0.00001804,0.00013197,-0.00008975,0.00003368,-0.000030
 16,0.00000938,0.00000280,-0.00023923,0.00019700,-0.00005998,0.00028705
 ,0.00007675,0.00003420,-0.00004273,-0.00019242,-0.00002023,-0.00010200
 ,-0.00030291,-0.00030285,0.00086785,-0.00033012,-0.00097577,-0.0061034
 7,0.00525982,0.00416172,-0.00001797,-0.00001896,-0.00001627,0.00008450
 ,0.00010623,0.00001324,-0.00003253,-0.00003076,0.00000134,-0.00008498,
 -0.00002565,0.00001024,0.00025104,0.00018404,0.00012481,-0.00005267,-0
 .00013248,-0.00012399,0.38117692,0.00020221,0.00147122,-0.00047865,0.0
 0001803,0.00002583,-0.00000373,-0.00004007,-0.00005960,0.00001043,0.00
 002354,0.00002963,-0.00000742,0.00002916,0.00002936,-0.00000456,-0.000
 06516,-0.00034723,0.00007664,-0.00006193,0.00028375,-0.00000222,0.0001
 8740,0.00015972,0.00010944,-0.00389227,-0.00348441,-0.00458300,0.00288
 298,0.00766242,0.00693009,-0.00003304,0.00003098,-0.00000467,0.0001288
 2,-0.00017057,0.00001649,-0.00006719,0.00002914,-0.00001620,-0.0001323
 1,0.00000609,-0.00003807,0.00054970,-0.00036504,0.00029704,-0.00034533
 ,-0.00011690,-0.00027233,-0.20218086,0.17434128,-0.00027206,-0.0003731
 0,0.00028750,-0.00001987,-0.00001006,0.00001911,0.00004953,-0.00000759
 ,-0.00003833,-0.00000160,-0.00000421,0.00003052,-0.00007204,0.00005123
 ,0.00001597,0.00010534,0.00014447,-0.00007078,0.00001107,-0.00011477,0
 .00003878,-0.00090648,0.00017828,0.00001817,-0.00162234,-0.00325642,-0
 .00526617,-0.00741921,0.00978609,0.00822665,-0.00001460,-0.00000813,0.
 00002407,0.00002140,0.00004869,-0.00007194,0.00002304,0.00000408,0.000
 04456,-0.00003199,-0.00001878,0.00009822,0.00010787,0.00014888,-0.0002
 6035,-0.00011593,-0.00014916,0.00012395,0.00155766,0.02147962,0.015993
 77,0.00576791,0.00471846,-0.00229561,0.00011130,-0.00001268,0.00005496
 ,-0.00065360,0.00044082,-0.00009070,0.00011436,-0.00005451,-0.00006407
 ,0.00121292,-0.00096786,0.00023837,-0.00146245,-0.00091651,0.00022338,
 0.00004162,0.00134108,0.00004129,-0.00447828,-0.00232727,-0.00158724,-
 0.03148967,-0.01638593,-0.04332552,-0.01357766,0.01627013,0.01054254,0
 .00004722,0.00010795,0.00003426,-0.00014135,-0.00069910,0.00003982,0.0
 0001140,0.00012702,-0.00007564,0.00015831,0.00007433,-0.00014460,0.000
 20955,-0.00146153,0.00043838,-0.00035563,0.00017112,-0.00015711,-0.380
 68917,0.15471851,-0.00408876,0.49888488,0.00182708,-0.00047320,-0.0002
 8585,0.00001427,-0.00005647,0.00001816,-0.00018670,0.00032727,-0.00003
 396,-0.00002376,-0.00009464,-0.00002618,0.00047646,-0.00048704,0.00007
 983,-0.00057456,0.00004541,0.00005879,0.00008400,0.00012386,0.00002949
 ,-0.00348749,-0.00160614,-0.00350770,-0.01456611,0.01080171,-0.0139420
 9,0.01447223,-0.04024762,0.00122067,0.00006094,-0.00000213,0.00001493,
 -0.00022287,-0.00002712,-0.00000235,0.00009409,0.00000681,-0.00000746,
 0.00022576,0.00000010,-0.00002006,-0.00066185,-0.00002820,-0.00025108,
 0.00027058,0.00025630,0.00028431,0.21184856,-0.15596414,-0.01974539,-0
 .11186450,0.62462774,0.00545846,0.00516900,-0.00619913,0.00013664,-0.0
 0000537,-0.00002035,-0.00063059,0.00049064,0.00007393,0.00002519,-0.00
 008375,-0.00016752,0.00124313,-0.00102692,0.00010692,-0.00149175,-0.00
 119922,0.00079671,-0.00003620,0.00138652,-0.00005708,-0.00228434,-0.00
 194670,-0.00062384,-0.04750297,-0.01648268,-0.03263060,0.02449012,0.00
 618221,-0.00792139,0.00007794,0.00010272,-0.00003298,-0.00016041,-0.00
 066310,0.00023676,-0.00005047,0.00005864,-0.00018430,0.00024082,0.0000
 3351,-0.00033743,-0.00003356,-0.00176134,0.00099897,-0.00016890,0.0003
 8404,-0.00038327,-0.00190331,-0.02086313,-0.02625820,0.06644272,0.1488
 7752,0.12499656,0.00021587,-0.00071913,-0.00070999,-0.00001511,-0.0000
 1910,-0.00002453,0.00007584,0.00006608,0.00005479,-0.00006631,-0.00003
 910,-0.00002564,-0.00004111,-0.00002932,-0.00004836,0.00003893,0.00015
 853,0.00012923,0.00000154,-0.00017229,-0.00002391,-0.00039173,-0.00067
 610,-0.00124710,-0.00481710,0.00119417,-0.00432099,0.00807758,-0.00948
 575,0.00664969,0.00000984,-0.00001840,-0.00001686,-0.00002354,0.000110
 68,0.00003146,0.00000390,-0.00003385,-0.00001088,0.00003248,-0.0000247
 6,-0.00002253,-0.00015971,0.00008965,0.00002389,0.00006110,0.00003930,
 -0.00000217,0.00532709,0.04807779,0.01268900,-0.07371166,-0.09778614,-
 0.04385253,0.06538210,-0.00071473,-0.00023642,0.00010054,-0.00000777,0
 .00003152,-0.00001268,0.00011115,-0.00017860,0.00002720,0.00000439,0.0
 0005322,0.00000867,-0.00026817,0.00026362,-0.00005573,0.00032653,0.000
 02337,-0.00001060,-0.00003015,-0.00012598,-0.00001509,0.00004870,0.000
 08603,0.00015523,0.00418062,0.00141212,0.00321952,-0.00534863,-0.00070
 027,-0.00291304,-0.00002511,-0.00000359,-0.00000861,0.00008182,0.00005
 144,0.00000404,-0.00003558,-0.00000999,0.00000245,-0.00007394,-0.00000
 679,0.00000430,0.00012815,0.00010225,0.00001425,-0.00005784,-0.0000695
 2,-0.00005211,-0.01430765,-0.02356153,-0.00815372,-0.04327953,-0.43720
 248,-0.11865258,0.05926775,0.46007161,-0.00072822,-0.00047317,0.000383
 92,-0.00002552,-0.00001081,0.00002534,0.00007179,-0.00003756,-0.000056
 92,0.00000854,0.00000713,0.00005088,-0.00011744,0.00011203,0.00002308,
 0.00018533,0.00008868,-0.00011178,-0.00000558,-0.00012808,0.00003557,-
 0.00132642,-0.00076509,-0.00128315,-0.00270642,0.00167819,-0.00336687,
 0.00240468,-0.01154178,0.00353523,-0.00001910,-0.00000790,0.00001944,0
 .00004384,0.00005017,-0.00006359,0.00000411,0.00000759,0.00004204,-0.0
 0005424,-0.00000217,0.00006961,0.00010670,0.00017321,-0.00011946,-0.00
 004656,-0.00008106,0.00003755,-0.00229649,-0.00264578,0.00704449,-0.02
 622644,-0.11276158,-0.05239378,0.03072745,0.12633796,0.04612838\\0.005
 85219,-0.01052892,0.00538682,0.00139166,0.00146345,-0.01141331,-0.0104
 3852,-0.00708047,0.00104728,0.00329688,0.00689267,0.00931634,0.0065990
 2,0.00039008,0.00828776,-0.01196717,-0.00362497,-0.01546299,0.00209001
 ,0.00223220,0.00767426,0.00470915,-0.00007893,-0.01012162,-0.00022145,
 0.01569870,0.00684735,-0.00257365,-0.01079386,-0.00102394,-0.00053152,
 -0.00133905,-0.01171771,-0.00605298,-0.00213798,0.00000094,0.00488332,
 -0.00002435,0.01115207,-0.00826236,-0.00022410,0.00705041,-0.00657652,
 0.00322600,-0.00702653,0.01252432,0.00219000,-0.00091378,0.00183686,-0
 .01088857,0.00309870,0.00926086,0.00817675,-0.00955394,-0.00582011,0.0
 0645134,0.00737188\\\@


 IF AT FIRST YOU DON'T SUCCEED, TRY, TRY AGAIN.
 THEN GIVE UP;
 THERE'S NO USE BEING A DAMN FOOL ABOUT IT.

                                 -- W. C. FIELDS
 Job cpu time:       0 days  0 hours 50 minutes 53.1 seconds.
 Elapsed time:       0 days  0 hours  1 minutes 50.1 seconds.
 File lengths (MBytes):  RWF=   2793 Int=      0 D2E=      0 Chk=      3 Scr=      1
 Normal termination of Gaussian 16 at Wed May 11 22:07:45 2022.
