 Entering Gaussian System, Link 0=g16
 Initial command:
 /cm/shared/apps/gaussian/intel/EM64T/SSE4_2-enabled/binary//g16/l1.exe "/scratch/florez/25750/Gau-26458.inp" -scrdir="/scratch/florez/25750/"
 Entering Link 1 = /cm/shared/apps/gaussian/intel/EM64T/SSE4_2-enabled/binary//g16/l1.exe PID=     26460.
  
 Copyright (c) 1988,1990,1992,1993,1995,1998,2003,2009,2016,
            Gaussian, Inc.  All Rights Reserved.
  
 This is part of the Gaussian(R) 16 program.  It is based on
 the Gaussian(R) 09 system (copyright 2009, Gaussian, Inc.),
 the Gaussian(R) 03 system (copyright 2003, Gaussian, Inc.),
 the Gaussian(R) 98 system (copyright 1998, Gaussian, Inc.),
 the Gaussian(R) 94 system (copyright 1995, Gaussian, Inc.),
 the Gaussian 92(TM) system (copyright 1992, Gaussian, Inc.),
 the Gaussian 90(TM) system (copyright 1990, Gaussian, Inc.),
 the Gaussian 88(TM) system (copyright 1988, Gaussian, Inc.),
 the Gaussian 86(TM) system (copyright 1986, Carnegie Mellon
 University), and the Gaussian 82(TM) system (copyright 1983,
 Carnegie Mellon University). Gaussian is a federally registered
 trademark of Gaussian, Inc.
  
 This software contains proprietary and confidential information,
 including trade secrets, belonging to Gaussian, Inc.
  
 This software is provided under written license and may be
 used, copied, transmitted, or stored only in accord with that
 written license.
  
 The following legend is applicable only to US Government
 contracts under FAR:
  
                    RESTRICTED RIGHTS LEGEND
  
 Use, reproduction and disclosure by the US Government is
 subject to restrictions as set forth in subparagraphs (a)
 and (c) of the Commercial Computer Software - Restricted
 Rights clause in FAR 52.227-19.
  
 Gaussian, Inc.
 340 Quinnipiac St., Bldg. 40, Wallingford CT 06492
  
  
 ---------------------------------------------------------------
 Warning -- This program may not be used in any manner that
 competes with the business of Gaussian, Inc. or will provide
 assistance to any competitor of Gaussian, Inc.  The licensee
 of this program is prohibited from giving any competitor of
 Gaussian, Inc. access to this program.  By using this program,
 the user acknowledges that Gaussian, Inc. is engaged in the
 business of creating and licensing software in the field of
 computational chemistry and represents and warrants to the
 licensee that it is not a competitor of Gaussian, Inc. and that
 it will not use this program in any manner prohibited above.
 ---------------------------------------------------------------
  

 Cite this work as:
 Gaussian 16, Revision A.03,
 M. J. Frisch, G. W. Trucks, H. B. Schlegel, G. E. Scuseria, 
 M. A. Robb, J. R. Cheeseman, G. Scalmani, V. Barone, 
 G. A. Petersson, H. Nakatsuji, X. Li, M. Caricato, A. V. Marenich, 
 J. Bloino, B. G. Janesko, R. Gomperts, B. Mennucci, H. P. Hratchian, 
 J. V. Ortiz, A. F. Izmaylov, J. L. Sonnenberg, D. Williams-Young, 
 F. Ding, F. Lipparini, F. Egidi, J. Goings, B. Peng, A. Petrone, 
 T. Henderson, D. Ranasinghe, V. G. Zakrzewski, J. Gao, N. Rega, 
 G. Zheng, W. Liang, M. Hada, M. Ehara, K. Toyota, R. Fukuda, 
 J. Hasegawa, M. Ishida, T. Nakajima, Y. Honda, O. Kitao, H. Nakai, 
 T. Vreven, K. Throssell, J. A. Montgomery, Jr., J. E. Peralta, 
 F. Ogliaro, M. J. Bearpark, J. J. Heyd, E. N. Brothers, K. N. Kudin, 
 V. N. Staroverov, T. A. Keith, R. Kobayashi, J. Normand, 
 K. Raghavachari, A. P. Rendell, J. C. Burant, S. S. Iyengar, 
 J. Tomasi, M. Cossi, J. M. Millam, M. Klene, C. Adamo, R. Cammi, 
 J. W. Ochterski, R. L. Martin, K. Morokuma, O. Farkas, 
 J. B. Foresman, and D. J. Fox, Gaussian, Inc., Wallingford CT, 2016.
 
 ******************************************
 Gaussian 16:  ES64L-G16RevA.03 25-Dec-2016
                11-May-2022 
 ******************************************
 %chk=w6s11.chk
 %nproc=28
 Will use up to   28 processors via shared memory.
 %mem=500gb
 ------------------------
 #p MP2(full) SDDAll freq
 ------------------------
 1/10=4,30=1,38=1/1,3;
 2/12=2,17=6,18=5,40=1/2;
 3/5=17,6=6,11=9,25=1,30=1,71=2,140=1/1,2,3;
 4//1;
 5/5=2,38=5,98=1/2;
 8/6=3,8=1,10=90,19=11/1;
 9/15=3,16=-3/6;
 11/6=1,8=1,15=11,17=11,24=-1,27=1,28=-2,29=300,32=6,42=3/1,2,10;
 10/6=2,21=1/2;
 8/6=4,8=1,10=90,19=11/11,4;
 10/5=1,20=4/2;
 11/12=2,14=11,16=1,28=-2,42=3/2,10,12;
 6/7=2,8=2,9=2,10=2/1;
 7/8=1,10=1,12=2,25=1,44=2/1,2,3,16;
 1/10=4,30=1/3;
 99//99;
 Leave Link    1 at Wed May 11 21:56:37 2022, MaxMem= 67108864000 cpu:               1.5 elap:               0.1
 (Enter /cm/shared/apps/gaussian/intel/EM64T/SSE4_2-enabled/binary//g16/l101.exe)
 ----------------------------------------------------------------------
 file 'w6s11.log' Now we use Def2-QZVPPD, but it was opt at: ---'ZORA-S
 R+SO PBE QZ4P'---
 ----------------------------------------------------------------------
 Symbolic Z-matrix:
 Charge =  2 Multiplicity = 1
 Hg(Fragment=1)        0.34451   0.6109   -0.10353 
 H(Fragment=2)        -3.67379   2.52677  -0.80484 
 O(Fragment=2)        -3.05996   2.45424  -0.05323 
 H(Fragment=2)        -3.50249   2.87046   0.70782 
 H(Fragment=2)         2.4699    2.0335   -0.60431 
 O(Fragment=2)         2.30285   1.07591  -0.52883 
 H(Fragment=2)         3.17159   0.56791  -0.05449 
 H(Fragment=2)        -2.03714  -0.44994   0.26376 
 O(Fragment=2)        -1.62967   0.46915   0.41417 
 H(Fragment=2)        -2.28101   1.27748   0.17575 
 H(Fragment=2)        -0.47159  -2.287    -0.25585 
 O(Fragment=2)         0.40266  -1.84904  -0.32602 
 H(Fragment=2)         0.94603  -2.39403  -0.92012 
 H(Fragment=2)         4.63282   0.17336   1.25508 
 O(Fragment=2)         4.2069   -0.1277    0.43086 
 H(Fragment=2)         4.92175  -0.34031  -0.19772 
 H(Fragment=2)        -2.74482  -2.43697   0.97893 
 O(Fragment=2)        -2.43156  -2.02357   0.15299 
 H(Fragment=2)        -3.06355  -2.31182  -0.53104 
 
 ITRead=  0  0  0  0  0  0  0  0  0  0  0  0  0  0  0  0  0  0  0
 MicOpt= -1 -1 -1 -1 -1 -1 -1 -1 -1 -1 -1 -1 -1 -1 -1 -1 -1 -1 -1
 NAtoms=     19 NQM=       19 NQMF=       0 NMMI=      0 NMMIF=      0
                NMic=       0 NMicF=      0.
                    Isotopes and Nuclear Properties:
 (Nuclear quadrupole moments (NQMom) in fm**2, nuclear magnetic moments (NMagM)
  in nuclear magnetons)

  Atom         1           2           3           4           5           6           7           8           9          10
 IAtWgt=         202           1          16           1           1          16           1           1          16           1
 AtmWgt= 201.9706000   1.0078250  15.9949146   1.0078250   1.0078250  15.9949146   1.0078250   1.0078250  15.9949146   1.0078250
 NucSpn=           0           1           0           1           1           0           1           1           0           1
 AtZEff=  -0.0000000  -0.0000000  -0.0000000  -0.0000000  -0.0000000  -0.0000000  -0.0000000  -0.0000000  -0.0000000  -0.0000000
 NQMom=    0.0000000   0.0000000   0.0000000   0.0000000   0.0000000   0.0000000   0.0000000   0.0000000   0.0000000   0.0000000
 NMagM=    0.0000000   2.7928460   0.0000000   2.7928460   2.7928460   0.0000000   2.7928460   2.7928460   0.0000000   2.7928460
 AtZNuc=  80.0000000   1.0000000   8.0000000   1.0000000   1.0000000   8.0000000   1.0000000   1.0000000   8.0000000   1.0000000

  Atom        11          12          13          14          15          16          17          18          19
 IAtWgt=           1          16           1           1          16           1           1          16           1
 AtmWgt=   1.0078250  15.9949146   1.0078250   1.0078250  15.9949146   1.0078250   1.0078250  15.9949146   1.0078250
 NucSpn=           1           0           1           1           0           1           1           0           1
 AtZEff=  -0.0000000  -0.0000000  -0.0000000  -0.0000000  -0.0000000  -0.0000000  -0.0000000  -0.0000000  -0.0000000
 NQMom=    0.0000000   0.0000000   0.0000000   0.0000000   0.0000000   0.0000000   0.0000000   0.0000000   0.0000000
 NMagM=    2.7928460   0.0000000   2.7928460   2.7928460   0.0000000   2.7928460   2.7928460   0.0000000   2.7928460
 AtZNuc=   1.0000000   8.0000000   1.0000000   1.0000000   8.0000000   1.0000000   1.0000000   8.0000000   1.0000000
 Leave Link  101 at Wed May 11 21:56:37 2022, MaxMem= 67108864000 cpu:               2.3 elap:               0.1
 (Enter /cm/shared/apps/gaussian/intel/EM64T/SSE4_2-enabled/binary//g16/l103.exe)

 GradGradGradGradGradGradGradGradGradGradGradGradGradGradGradGradGradGrad
 Berny optimization.
 Initialization pass.
 Trust Radius=3.00D-01 FncErr=1.00D-07 GrdErr=1.00D-07 EigMax=2.50D+02 EigMin=1.00D-04
 Number of steps in this run=      2 maximum allowed number of steps=      2.
 GradGradGradGradGradGradGradGradGradGradGradGradGradGradGradGradGradGrad

 Leave Link  103 at Wed May 11 21:56:37 2022, MaxMem= 67108864000 cpu:               1.3 elap:               0.1
 (Enter /cm/shared/apps/gaussian/intel/EM64T/SSE4_2-enabled/binary//g16/l202.exe)
                          Input orientation:                          
 ---------------------------------------------------------------------
 Center     Atomic      Atomic             Coordinates (Angstroms)
 Number     Number       Type             X           Y           Z
 ---------------------------------------------------------------------
      1         80           0        0.344510    0.610904   -0.103525
      2          1           0       -3.673789    2.526772   -0.804838
      3          8           0       -3.059964    2.454235   -0.053229
      4          1           0       -3.502485    2.870457    0.707819
      5          1           0        2.469897    2.033499   -0.604314
      6          8           0        2.302849    1.075913   -0.528826
      7          1           0        3.171594    0.567906   -0.054486
      8          1           0       -2.037136   -0.449944    0.263761
      9          8           0       -1.629671    0.469152    0.414170
     10          1           0       -2.281010    1.277483    0.175754
     11          1           0       -0.471586   -2.287004   -0.255846
     12          8           0        0.402657   -1.849037   -0.326018
     13          1           0        0.946033   -2.394028   -0.920122
     14          1           0        4.632816    0.173359    1.255082
     15          8           0        4.206900   -0.127697    0.430862
     16          1           0        4.921754   -0.340310   -0.197717
     17          1           0       -2.744815   -2.436970    0.978927
     18          8           0       -2.431559   -2.023573    0.152986
     19          1           0       -3.063552   -2.311817   -0.531040
 ---------------------------------------------------------------------
                    Distance matrix (angstroms):
                    1          2          3          4          5
     1  Hg   0.000000
     2  H    4.506564   0.000000
     3  O    3.871801   0.973118   0.000000
     4  H    4.534670   1.560639   0.973786   0.000000
     5  H    2.606115   6.166718   5.573157   6.171834   0.000000
     6  O    2.057233   6.156409   5.557493   6.200934   0.974974
     7  H    2.827836   7.159571   6.510803   7.101139   1.715416
     8  H    2.632971   3.561092   3.095305   3.656432   5.218658
     9  O    2.045848   3.146140   2.490934   3.059400   4.504548
    10  H    2.723175   2.112372   1.429667   2.076695   4.873519
    11  H    3.014479   5.807576   5.405562   6.059241   5.238368
    12  O    2.470667   5.999532   5.530127   6.212292   4.407382
    13  H    3.171479   6.750579   6.348635   7.081971   4.693068
    14  H    4.519605   8.875895   8.129756   8.588187   3.405245
    15  O    3.968521   8.407046   7.727097   8.276488   2.959651
    16  H    4.675986   9.081416   8.458025   9.060730   3.436843
    17  H    4.472714   5.355702   5.008847   5.368086   7.048756
    18  O    3.835730   4.813128   4.526387   5.040461   6.407621
    19  H    4.509984   4.884598   4.789944   5.346344   7.036064
                    6          7          8          9         10
     6  O    0.000000
     7  H    1.112559   0.000000
     8  H    4.668180   5.316782   0.000000
     9  O    4.089268   4.825094   1.016557   0.000000
    10  H    4.642071   5.503399   1.746775   1.065121   0.000000
    11  H    4.368205   4.632906   2.468953   3.063736   4.020679
    12  O    3.493879   3.685425   2.873655   3.170526   4.150780
    13  H    3.746272   3.804668   3.752378   4.075829   5.009465
    14  H    3.070127   2.001451   6.771963   6.325612   7.084139
    15  O    2.448487   1.338389   6.254578   5.867032   6.643236
    16  H    2.995661   1.976975   6.975036   6.629540   7.391654
    17  H    6.331870   6.715737   2.227228   3.163549   3.828494
    18  O    5.699675   6.176903   1.626084   2.631524   3.304566
    19  H    6.346257   6.884545   2.269760   3.268520   3.740990
                   11         12         13         14         15
    11  H    0.000000
    12  O    0.980326   0.000000
    13  H    1.569191   0.972231   0.000000
    14  H    5.864402   4.948152   4.991529   0.000000
    15  O    5.198308   4.243600   4.194600   0.975386   0.000000
    16  H    5.734206   4.766021   4.532768   1.567790   0.975363
    17  H    2.591278   3.457619   4.150975   7.830678   7.345710
    18  O    2.019414   2.879703   3.563275   7.479741   6.909464
    19  H    2.606652   3.502971   4.029257   8.282537   7.652131
                   16         17         18         19
    16  H    0.000000
    17  H    8.034722   0.000000
    18  O    7.551661   0.975297   0.000000
    19  H    8.231832   1.548308   0.974880   0.000000
 Stoichiometry    H12HgO6(2+)
 Framework group  C1[X(H12HgO6)]
 Deg. of freedom    51
 Full point group                 C1      NOp   1
 Largest Abelian subgroup         C1      NOp   1
 Largest concise Abelian subgroup C1      NOp   1
                         Standard orientation:                         
 ---------------------------------------------------------------------
 Center     Atomic      Atomic             Coordinates (Angstroms)
 Number     Number       Type             X           Y           Z
 ---------------------------------------------------------------------
      1         80           0       -0.160257   -0.275447   -0.041467
      2          1           0        3.928829   -2.037965   -0.735746
      3          8           0        3.319111   -1.972821    0.019872
      4          1           0        3.785421   -2.351396    0.786354
      5          1           0       -2.228181   -1.797623   -0.487011
      6          8           0       -2.100939   -0.832321   -0.436248
      7          1           0       -2.986106   -0.349680    0.034203
      8          1           0        2.177747    0.892869    0.276823
      9          8           0        1.810671   -0.038526    0.453308
     10          1           0        2.493346   -0.824467    0.228063
     11          1           0        0.531748    2.649495   -0.271524
     12          8           0       -0.323863    2.173718   -0.322563
     13          1           0       -0.894892    2.680774   -0.924272
     14          1           0       -4.451099    0.015268    1.348134
     15          8           0       -4.045481    0.313632    0.512771
     16          1           0       -4.774139    0.480676   -0.113716
     17          1           0        2.807393    2.924694    0.936960
     18          8           0        2.504585    2.478451    0.124322
     19          1           0        3.117858    2.776078   -0.572604
 ---------------------------------------------------------------------
 Rotational constants (GHZ):           1.5451497           0.6293680           0.4621817
 Leave Link  202 at Wed May 11 21:56:37 2022, MaxMem= 67108864000 cpu:               0.2 elap:               0.0
 (Enter /cm/shared/apps/gaussian/intel/EM64T/SSE4_2-enabled/binary//g16/l301.exe)
 Standard basis: SDDAll (6D, 10F)
 Ernie: Thresh=  0.10000D-02 Tol=  0.10000D-05 Strict=F.
 There are   129 symmetry adapted cartesian basis functions of A   symmetry.
 There are   129 symmetry adapted basis functions of A   symmetry.
   129 basis functions,   227 primitive gaussians,   129 cartesian basis functions
    33 alpha electrons       33 beta electrons
       nuclear repulsion energy       339.4805567983 Hartrees.
 IExCor=    0 DFT=F Ex=HF Corr=None ExCW=0 ScaHFX=  1.000000
 ScaDFX=  1.000000  1.000000  1.000000  1.000000 ScalE2=  1.000000  1.000000
 IRadAn=      5 IRanWt=     -1 IRanGd=            0 ICorTp=0 IEmpDi=  4
 NAtoms=   19 NActive=   19 NUniq=   19 SFac= 1.00D+00 NAtFMM=   60 NAOKFM=F Big=F
 Integral buffers will be    131072 words long.
 Raffenetti 1 integral format.
 Two-electron integral symmetry is turned on.
 Leave Link  301 at Wed May 11 21:56:37 2022, MaxMem= 67108864000 cpu:               2.1 elap:               0.1
 (Enter /cm/shared/apps/gaussian/intel/EM64T/SSE4_2-enabled/binary//g16/l302.exe)
 NPDir=0 NMtPBC=     1 NCelOv=     1 NCel=       1 NClECP=     1 NCelD=      1
         NCelK=      1 NCelE2=     1 NClLst=     1 CellRange=     0.0.
 One-electron integrals computed using PRISM.
 One-electron integral symmetry used in STVInt
   1 Symmetry operations used in ECPInt.
 ECPInt:  NShTT=    2346 NPrTT=    7709 LenC2=    2305 LenP2D=    5904.
 LDataN:  DoStor=T MaxTD1= 7 Len=  274
 NBasis=   129 RedAO= T EigKep=  3.80D-04  NBF=   129
 NBsUse=   129 1.00D-06 EigRej= -1.00D+00 NBFU=   129
 Leave Link  302 at Wed May 11 21:56:37 2022, MaxMem= 67108864000 cpu:               7.6 elap:               0.3
 (Enter /cm/shared/apps/gaussian/intel/EM64T/SSE4_2-enabled/binary//g16/l303.exe)
 DipDrv:  MaxL=1.
 Leave Link  303 at Wed May 11 21:56:37 2022, MaxMem= 67108864000 cpu:               0.9 elap:               0.1
 (Enter /cm/shared/apps/gaussian/intel/EM64T/SSE4_2-enabled/binary//g16/l401.exe)
 ExpMin= 2.00D-02 ExpMax= 4.71D+01 ExpMxC= 4.71D+01 IAcc=3 IRadAn=         5 AccDes= 0.00D+00
 Harris functional with IExCor=  205 and IRadAn=       5 diagonalized for initial guess.
 HarFok:  IExCor=  205 AccDes= 0.00D+00 IRadAn=         5 IDoV= 1 UseB2=F ITyADJ=14
 ICtDFT=  3500011 ScaDFX=  1.000000  1.000000  1.000000  1.000000
 Defaulting to unpruned grid for atomic number  80.
 FoFCou: FMM=F IPFlag=           0 FMFlag=      100000 FMFlg1=           0
         NFxFlg=           0 DoJE=T BraDBF=F KetDBF=T FulRan=T
         wScrn=  0.000000 ICntrl=       500 IOpCl=  0 I1Cent=   200000004 NGrid=           0
         NMat0=    1 NMatS0=      1 NMatT0=    0 NMatD0=    1 NMtDS0=    0 NMtDT0=    0
 Petite list used in FoFCou.
 Harris En= -257.161977444986    
 JPrj=0 DoOrth=F DoCkMO=F.
 Leave Link  401 at Wed May 11 21:56:38 2022, MaxMem= 67108864000 cpu:               8.8 elap:               0.4
 (Enter /cm/shared/apps/gaussian/intel/EM64T/SSE4_2-enabled/binary//g16/l502.exe)
 Integral symmetry usage will be decided dynamically.
 Closed shell SCF:
 Using DIIS extrapolation, IDIIS=  1040.
 NGot= 67108864000 LenX= 67108825412 LenY= 67108808330
 Requested convergence on RMS density matrix=1.00D-08 within 128 cycles.
 Requested convergence on MAX density matrix=1.00D-06.
 Requested convergence on             energy=1.00D-06.
 No special actions if energy rises.
 Fock matrices will be formed incrementally for  20 cycles.

 Cycle   1  Pass 0  IDiag  1:
 FoFJK:  IHMeth= 1 ICntrl=       0 DoSepK=F KAlg= 0 I1Cent=           0 FoldK=F
 IRaf= 950000000 NMat=       1 IRICut=       1 DoRegI=T DoRafI=F ISym2E= 0 IDoP0=0 IntGTp=1.
 FoFCou: FMM=F IPFlag=           0 FMFlag=      100000 FMFlg1=           0
         NFxFlg=           0 DoJE=F BraDBF=F KetDBF=F FulRan=T
         wScrn=  0.000000 ICntrl=         0 IOpCl=  0 I1Cent=           0 NGrid=           0
         NMat0=    1 NMatS0=      1 NMatT0=    0 NMatD0=    1 NMtDS0=    0 NMtDT0=    0
 Symmetry not used in FoFCou.
 E= -252.953473287835    
 DIIS: error= 4.14D-02 at cycle   1 NSaved=   1.
 NSaved= 1 IEnMin= 1 EnMin= -252.953473287835     IErMin= 1 ErrMin= 4.14D-02
 ErrMax= 4.14D-02  0.00D+00 EMaxC= 1.00D-01 BMatC= 6.20D-01 BMatP= 6.20D-01
 IDIUse=3 WtCom= 5.86D-01 WtEn= 4.14D-01
 Coeff-Com:  0.100D+01
 Coeff-En:   0.100D+01
 Coeff:      0.100D+01
 Gap=     0.670 Goal=   None    Shift=    0.000
 GapD=    0.670 DampG=2.000 DampE=0.250 DampFc=0.5000 IDamp=-1.
 Damping current iteration by 5.00D-01
 RMSDP=7.83D-03 MaxDP=2.39D-01              OVMax= 2.21D-01

 Cycle   2  Pass 0  IDiag  1:
 RMSU=  3.90D-03    CP:  1.01D+00
 E= -253.218477960650     Delta-E=       -0.265004672815 Rises=F Damp=T
 DIIS: error= 9.39D-03 at cycle   2 NSaved=   2.
 NSaved= 2 IEnMin= 2 EnMin= -253.218477960650     IErMin= 2 ErrMin= 9.39D-03
 ErrMax= 9.39D-03  0.00D+00 EMaxC= 1.00D-01 BMatC= 3.98D-02 BMatP= 6.20D-01
 IDIUse=3 WtCom= 9.06D-01 WtEn= 9.39D-02
 Coeff-Com: -0.245D+00 0.124D+01
 Coeff-En:   0.000D+00 0.100D+01
 Coeff:     -0.222D+00 0.122D+01
 Gap=     0.548 Goal=   None    Shift=    0.000
 RMSDP=2.52D-03 MaxDP=7.23D-02 DE=-2.65D-01 OVMax= 6.10D-02

 Cycle   3  Pass 0  IDiag  1:
 RMSU=  2.12D-03    CP:  1.00D+00  1.35D+00
 E= -253.444009956023     Delta-E=       -0.225531995373 Rises=F Damp=F
 DIIS: error= 2.89D-03 at cycle   3 NSaved=   3.
 NSaved= 3 IEnMin= 3 EnMin= -253.444009956023     IErMin= 3 ErrMin= 2.89D-03
 ErrMax= 2.89D-03  0.00D+00 EMaxC= 1.00D-01 BMatC= 2.80D-03 BMatP= 3.98D-02
 IDIUse=3 WtCom= 9.71D-01 WtEn= 2.89D-02
 Coeff-Com:  0.626D-01-0.232D+00 0.117D+01
 Coeff-En:   0.000D+00 0.000D+00 0.100D+01
 Coeff:      0.608D-01-0.226D+00 0.116D+01
 Gap=     0.539 Goal=   None    Shift=    0.000
 RMSDP=1.02D-03 MaxDP=3.33D-02 DE=-2.26D-01 OVMax= 2.24D-02

 Cycle   4  Pass 0  IDiag  1:
 RMSU=  5.11D-04    CP:  9.93D-01  1.30D+00  1.38D+00
 E= -253.447912955607     Delta-E=       -0.003902999585 Rises=F Damp=F
 DIIS: error= 1.75D-03 at cycle   4 NSaved=   4.
 NSaved= 4 IEnMin= 4 EnMin= -253.447912955607     IErMin= 4 ErrMin= 1.75D-03
 ErrMax= 1.75D-03  0.00D+00 EMaxC= 1.00D-01 BMatC= 4.76D-04 BMatP= 2.80D-03
 IDIUse=3 WtCom= 9.82D-01 WtEn= 1.75D-02
 Coeff-Com:  0.308D-01-0.134D+00 0.344D+00 0.759D+00
 Coeff-En:   0.000D+00 0.000D+00 0.000D+00 0.100D+01
 Coeff:      0.302D-01-0.132D+00 0.338D+00 0.764D+00
 Gap=     0.541 Goal=   None    Shift=    0.000
 RMSDP=2.85D-04 MaxDP=8.05D-03 DE=-3.90D-03 OVMax= 9.93D-03

 Cycle   5  Pass 0  IDiag  1:
 RMSU=  1.88D-04    CP:  9.92D-01  1.31D+00  1.47D+00  1.12D+00
 E= -253.448642086337     Delta-E=       -0.000729130729 Rises=F Damp=F
 DIIS: error= 5.64D-04 at cycle   5 NSaved=   5.
 NSaved= 5 IEnMin= 5 EnMin= -253.448642086337     IErMin= 5 ErrMin= 5.64D-04
 ErrMax= 5.64D-04  0.00D+00 EMaxC= 1.00D-01 BMatC= 4.67D-05 BMatP= 4.76D-04
 IDIUse=3 WtCom= 9.94D-01 WtEn= 5.64D-03
 Coeff-Com: -0.208D-01 0.756D-01-0.234D+00-0.259D+00 0.144D+01
 Coeff-En:   0.000D+00 0.000D+00 0.000D+00 0.000D+00 0.100D+01
 Coeff:     -0.207D-01 0.751D-01-0.233D+00-0.258D+00 0.144D+01
 Gap=     0.540 Goal=   None    Shift=    0.000
 RMSDP=2.29D-04 MaxDP=6.15D-03 DE=-7.29D-04 OVMax= 7.80D-03

 Cycle   6  Pass 0  IDiag  1:
 RMSU=  6.37D-05    CP:  9.91D-01  1.32D+00  1.54D+00  1.35D+00  1.58D+00
 E= -253.448824350303     Delta-E=       -0.000182263966 Rises=F Damp=F
 DIIS: error= 1.45D-04 at cycle   6 NSaved=   6.
 NSaved= 6 IEnMin= 6 EnMin= -253.448824350303     IErMin= 6 ErrMin= 1.45D-04
 ErrMax= 1.45D-04  0.00D+00 EMaxC= 1.00D-01 BMatC= 7.13D-06 BMatP= 4.67D-05
 IDIUse=3 WtCom= 9.99D-01 WtEn= 1.45D-03
 Coeff-Com: -0.597D-02 0.253D-01-0.925D-01-0.106D+00 0.340D+00 0.838D+00
 Coeff-En:   0.000D+00 0.000D+00 0.000D+00 0.000D+00 0.000D+00 0.100D+01
 Coeff:     -0.596D-02 0.253D-01-0.923D-01-0.105D+00 0.340D+00 0.839D+00
 Gap=     0.540 Goal=   None    Shift=    0.000
 RMSDP=5.58D-05 MaxDP=1.31D-03 DE=-1.82D-04 OVMax= 1.87D-03

 Cycle   7  Pass 0  IDiag  1:
 RMSU=  1.59D-05    CP:  9.91D-01  1.32D+00  1.56D+00  1.40D+00  1.70D+00
                    CP:  1.25D+00
 E= -253.448837067761     Delta-E=       -0.000012717459 Rises=F Damp=F
 DIIS: error= 4.60D-05 at cycle   7 NSaved=   7.
 NSaved= 7 IEnMin= 7 EnMin= -253.448837067761     IErMin= 7 ErrMin= 4.60D-05
 ErrMax= 4.60D-05  0.00D+00 EMaxC= 1.00D-01 BMatC= 7.49D-07 BMatP= 7.13D-06
 IDIUse=1 WtCom= 1.00D+00 WtEn= 0.00D+00
 Coeff-Com:  0.305D-02-0.856D-02 0.248D-01 0.348D-01-0.213D+00 0.645D-01
 Coeff-Com:  0.109D+01
 Coeff:      0.305D-02-0.856D-02 0.248D-01 0.348D-01-0.213D+00 0.645D-01
 Coeff:      0.109D+01
 Gap=     0.540 Goal=   None    Shift=    0.000
 RMSDP=2.26D-05 MaxDP=6.01D-04 DE=-1.27D-05 OVMax= 7.64D-04

 Cycle   8  Pass 0  IDiag  1:
 RMSU=  5.63D-06    CP:  9.91D-01  1.32D+00  1.56D+00  1.42D+00  1.75D+00
                    CP:  1.43D+00  1.27D+00
 E= -253.448838674175     Delta-E=       -0.000001606414 Rises=F Damp=F
 DIIS: error= 7.23D-06 at cycle   8 NSaved=   8.
 NSaved= 8 IEnMin= 8 EnMin= -253.448838674175     IErMin= 8 ErrMin= 7.23D-06
 ErrMax= 7.23D-06  0.00D+00 EMaxC= 1.00D-01 BMatC= 2.34D-08 BMatP= 7.49D-07
 IDIUse=1 WtCom= 1.00D+00 WtEn= 0.00D+00
 Coeff-Com: -0.523D-03 0.103D-02-0.858D-03-0.554D-02 0.374D-01-0.348D-01
 Coeff-Com: -0.267D+00 0.127D+01
 Coeff:     -0.523D-03 0.103D-02-0.858D-03-0.554D-02 0.374D-01-0.348D-01
 Coeff:     -0.267D+00 0.127D+01
 Gap=     0.540 Goal=   None    Shift=    0.000
 RMSDP=3.10D-06 MaxDP=1.00D-04 DE=-1.61D-06 OVMax= 8.36D-05

 Initial convergence to 1.0D-05 achieved.  Increase integral accuracy.
 Cycle   9  Pass 1  IDiag  1:
 E= -253.448838727404     Delta-E=       -0.000000053229 Rises=F Damp=F
 DIIS: error= 3.07D-06 at cycle   1 NSaved=   1.
 NSaved= 1 IEnMin= 1 EnMin= -253.448838727404     IErMin= 1 ErrMin= 3.07D-06
 ErrMax= 3.07D-06  0.00D+00 EMaxC= 1.00D-01 BMatC= 2.48D-09 BMatP= 2.48D-09
 IDIUse=1 WtCom= 1.00D+00 WtEn= 0.00D+00
 Coeff-Com:  0.100D+01
 Coeff:      0.100D+01
 Gap=     0.540 Goal=   None    Shift=    0.000
 RMSDP=3.10D-06 MaxDP=1.00D-04 DE=-5.32D-08 OVMax= 1.34D-05

 Cycle  10  Pass 1  IDiag  1:
 RMSU=  5.71D-07    CP:  1.00D+00
 E= -253.448838730805     Delta-E=       -0.000000003401 Rises=F Damp=F
 DIIS: error= 1.39D-06 at cycle   2 NSaved=   2.
 NSaved= 2 IEnMin= 2 EnMin= -253.448838730805     IErMin= 2 ErrMin= 1.39D-06
 ErrMax= 1.39D-06  0.00D+00 EMaxC= 1.00D-01 BMatC= 7.32D-10 BMatP= 2.48D-09
 IDIUse=1 WtCom= 1.00D+00 WtEn= 0.00D+00
 Coeff-Com:  0.281D+00 0.719D+00
 Coeff:      0.281D+00 0.719D+00
 Gap=     0.540 Goal=   None    Shift=    0.000
 RMSDP=2.34D-07 MaxDP=6.53D-06 DE=-3.40D-09 OVMax= 1.12D-05

 Cycle  11  Pass 1  IDiag  1:
 RMSU=  2.05D-07    CP:  1.00D+00  1.20D+00
 E= -253.448838731727     Delta-E=       -0.000000000922 Rises=F Damp=F
 DIIS: error= 6.87D-07 at cycle   3 NSaved=   3.
 NSaved= 3 IEnMin= 3 EnMin= -253.448838731727     IErMin= 3 ErrMin= 6.87D-07
 ErrMax= 6.87D-07  0.00D+00 EMaxC= 1.00D-01 BMatC= 1.18D-10 BMatP= 7.32D-10
 IDIUse=1 WtCom= 1.00D+00 WtEn= 0.00D+00
 Coeff-Com: -0.329D+00-0.225D+00 0.155D+01
 Coeff:     -0.329D+00-0.225D+00 0.155D+01
 Gap=     0.540 Goal=   None    Shift=    0.000
 RMSDP=3.06D-07 MaxDP=7.91D-06 DE=-9.22D-10 OVMax= 1.16D-05

 Cycle  12  Pass 1  IDiag  1:
 RMSU=  6.30D-08    CP:  1.00D+00  1.65D+00  1.70D+00
 E= -253.448838732124     Delta-E=       -0.000000000397 Rises=F Damp=F
 DIIS: error= 9.54D-08 at cycle   4 NSaved=   4.
 NSaved= 4 IEnMin= 4 EnMin= -253.448838732124     IErMin= 4 ErrMin= 9.54D-08
 ErrMax= 9.54D-08  0.00D+00 EMaxC= 1.00D-01 BMatC= 3.72D-12 BMatP= 1.18D-10
 IDIUse=1 WtCom= 1.00D+00 WtEn= 0.00D+00
 Coeff-Com: -0.574D-01-0.556D-01 0.215D+00 0.898D+00
 Coeff:     -0.574D-01-0.556D-01 0.215D+00 0.898D+00
 Gap=     0.540 Goal=   None    Shift=    0.000
 RMSDP=3.71D-08 MaxDP=8.85D-07 DE=-3.97D-10 OVMax= 1.33D-06

 Cycle  13  Pass 1  IDiag  1:
 RMSU=  1.56D-08    CP:  1.00D+00  1.70D+00  1.79D+00  1.20D+00
 E= -253.448838732136     Delta-E=       -0.000000000012 Rises=F Damp=F
 DIIS: error= 4.75D-08 at cycle   5 NSaved=   5.
 NSaved= 5 IEnMin= 5 EnMin= -253.448838732136     IErMin= 5 ErrMin= 4.75D-08
 ErrMax= 4.75D-08  0.00D+00 EMaxC= 1.00D-01 BMatC= 6.97D-13 BMatP= 3.72D-12
 IDIUse=1 WtCom= 1.00D+00 WtEn= 0.00D+00
 Coeff-Com:  0.630D-01 0.438D-01-0.302D+00 0.621D-01 0.113D+01
 Coeff:      0.630D-01 0.438D-01-0.302D+00 0.621D-01 0.113D+01
 Gap=     0.540 Goal=   None    Shift=    0.000
 RMSDP=1.93D-08 MaxDP=4.89D-07 DE=-1.16D-11 OVMax= 6.18D-07

 Cycle  14  Pass 1  IDiag  1:
 RMSU=  5.36D-09    CP:  1.00D+00  1.71D+00  1.84D+00  1.40D+00  1.27D+00
 E= -253.448838732133     Delta-E=        0.000000000003 Rises=F Damp=F
 DIIS: error= 1.24D-08 at cycle   6 NSaved=   6.
 NSaved= 6 IEnMin= 5 EnMin= -253.448838732136     IErMin= 6 ErrMin= 1.24D-08
 ErrMax= 1.24D-08  0.00D+00 EMaxC= 1.00D-01 BMatC= 4.13D-14 BMatP= 6.97D-13
 IDIUse=1 WtCom= 1.00D+00 WtEn= 0.00D+00
 Coeff-Com:  0.107D-01 0.939D-02-0.471D-01-0.590D-01 0.143D+00 0.943D+00
 Coeff:      0.107D-01 0.939D-02-0.471D-01-0.590D-01 0.143D+00 0.943D+00
 Gap=     0.540 Goal=   None    Shift=    0.000
 RMSDP=3.44D-09 MaxDP=9.77D-08 DE= 3.07D-12 OVMax= 1.29D-07

 SCF Done:  E(RHF) =  -253.448838732     A.U. after   14 cycles
            NFock= 14  Conv=0.34D-08     -V/T= 2.9192
 KE= 1.320623688963D+02 PE=-1.224047404172D+03 EE= 4.990556397456D+02
 Leave Link  502 at Wed May 11 21:56:40 2022, MaxMem= 67108864000 cpu:              62.0 elap:               2.2
 (Enter /cm/shared/apps/gaussian/intel/EM64T/SSE4_2-enabled/binary//g16/l801.exe)
 Range of M.O.s used for correlation:     1   129
 NBasis=   129 NAE=    33 NBE=    33 NFC=     0 NFV=     0
 NROrb=    129 NOA=    33 NOB=    33 NVA=    96 NVB=    96

 **** Warning!!: The largest alpha MO coefficient is  0.28667071D+02

 Leave Link  801 at Wed May 11 21:56:40 2022, MaxMem= 67108864000 cpu:               0.7 elap:               0.0
 (Enter /cm/shared/apps/gaussian/intel/EM64T/SSE4_2-enabled/binary//g16/l906.exe)
 FulOut=F Deriv=T AODrv=T NAtomX=    19
   MMem=           0  MDisk=          33 MDiskD=          33
  W3Min=      549153 MinDsk=     1693460 NBas6D=         129
 NBas2D=        8499    NTT=        8385    LW2=     3308096
    MDV= 67108619415 MDiskM=     7225088 NBas2p=        8179
 Disk-based method using ON**2 memory for 33 occupieds at a time.
 Permanent disk used for amplitudes=    12443904 words.
 Estimated scratch disk usage=   133259827 words.
 IMap=   1   2   3   4   5   6   7   8   9  10  11  12  13  14  15  16  17  18  19  20
 IMap=  21  22  23  24  25  26  27  28  29  30  31  32  33
 Actual    scratch disk usage=   121572915 words.
 JobTyp=1 Pass  1:  I=   1 to  33 NPSUse= 28 ParTrn=T ParDer=T DoDerP=T.
 (rs|ai) integrals will be sorted in core.
 Spin components of T(2) and E(2):
     alpha-alpha T2 =       0.3590504056D-01 E2=     -0.1157667798D+00
     alpha-beta  T2 =       0.2106402849D+00 E2=     -0.6906626351D+00
     beta-beta   T2 =       0.3590504056D-01 E2=     -0.1157667798D+00
 The integrals were generated   1 times.
 ANorm=    0.1132453251D+01
 E2 =    -0.9221961948D+00 EUMP2 =    -0.25437103492691D+03
 Leave Link  906 at Wed May 11 21:56:56 2022, MaxMem= 67108864000 cpu:             434.4 elap:              15.5
 (Enter /cm/shared/apps/gaussian/intel/EM64T/SSE4_2-enabled/binary//g16/l1101.exe)
 Using compressed Sx but separate Hx and Fx, NAtomX=    19.
 Will process     20 centers per pass.
   1 Symmetry operations used in ECPInt.
 ECPInt:  NShTT=    2346 NPrTT=    7709 LenC2=    2305 LenP2D=    5904.
 LDataN:  DoStor=T MaxTD1= 8 Len=  415
 Leave Link 1101 at Wed May 11 21:56:56 2022, MaxMem= 67108864000 cpu:              12.6 elap:               0.5
 (Enter /cm/shared/apps/gaussian/intel/EM64T/SSE4_2-enabled/binary//g16/l1102.exe)
 Leave Link 1102 at Wed May 11 21:56:56 2022, MaxMem= 67108864000 cpu:               0.6 elap:               0.0
 (Enter /cm/shared/apps/gaussian/intel/EM64T/SSE4_2-enabled/binary//g16/l1110.exe)
 Forming Gx(P) for the SCF density, NAtomX=    19.
 Integral derivatives from FoFJK, PRISM(SPDF).
 Do as many integral derivatives as possible in FoFJK.
 G2DrvN: MDV=   67108862534.
 G2DrvN: will do    20 centers at a time, making    1 passes.
 Calling FoFCou, ICntrl=  3107 FMM=F I1Cent=   0 AccDes= 0.00D+00.
 FoFJK:  IHMeth= 1 ICntrl=    3107 DoSepK=F KAlg= 0 I1Cent=           0 FoldK=F
 IRaf=         0 NMat=       1 IRICut=       1 DoRegI=T DoRafI=F ISym2E= 0 IDoP0=0 IntGTp=1.
 FoFCou: FMM=F IPFlag=           0 FMFlag=      100000 FMFlg1=           0
         NFxFlg=           0 DoJE=F BraDBF=F KetDBF=F FulRan=T
         wScrn=  0.000000 ICntrl=      3107 IOpCl=  0 I1Cent=           0 NGrid=           0
         NMat0=    1 NMatS0=      1 NMatT0=    0 NMatD0=    1 NMtDS0=    0 NMtDT0=    0
 Symmetry not used in FoFCou.
 End of G2Drv F.D. properties file   721 does not exist.
 End of G2Drv F.D. properties file   722 does not exist.
 End of G2Drv F.D. properties file   788 does not exist.
 Leave Link 1110 at Wed May 11 21:56:57 2022, MaxMem= 67108864000 cpu:              13.0 elap:               0.5
 (Enter /cm/shared/apps/gaussian/intel/EM64T/SSE4_2-enabled/binary//g16/l1002.exe)
 Minotr:  Closed shell wavefunction.
          IDoAtm=1111111111111111111
          Direct CPHF calculation.
          Differentiating once with respect to electric field.
                with respect to dipole field.
          Differentiating once with respect to nuclear coordinates.
          Requested convergence is 1.0D-08 RMS, and 1.0D-07 maximum.
          Secondary convergence is 1.0D-12 RMS, and 1.0D-12 maximum.
          NewPWx=T KeepS1=T KeepF1=T KeepIn=T MapXYZ=F SortEE=F KeepMc=T.
 Keep R1 ints in memory in canonical form, NReq=41173559.
 FoFCou: FMM=F IPFlag=           0 FMFlag=           0 FMFlg1=           0
         NFxFlg=           0 DoJE=F BraDBF=F KetDBF=F FulRan=T
         wScrn=  0.000000 ICntrl=       600 IOpCl=  0 I1Cent=           0 NGrid=           0
         NMat0=    1 NMatS0=   8385 NMatT0=    0 NMatD0=    1 NMtDS0=    0 NMtDT0=    0
 Symmetry not used in FoFCou.
 Two-electron integral symmetry not used.
          MDV=   67108864000 using IRadAn=       1.
          Solving linear equations simultaneously, MaxMat=       0.
          There are    60 degrees of freedom in the 1st order CPHF.  IDoFFX=6 NUNeed=    60.
     57 vectors produced by pass  0 Test12= 5.28D-15 1.67D-09 XBig12= 1.15D+01 9.49D-01.
 AX will form    57 AO Fock derivatives at one time.
     57 vectors produced by pass  1 Test12= 5.28D-15 1.67D-09 XBig12= 1.70D-01 6.14D-02.
     57 vectors produced by pass  2 Test12= 5.28D-15 1.67D-09 XBig12= 2.02D-03 5.26D-03.
     57 vectors produced by pass  3 Test12= 5.28D-15 1.67D-09 XBig12= 1.30D-05 7.00D-04.
     57 vectors produced by pass  4 Test12= 5.28D-15 1.67D-09 XBig12= 1.09D-07 8.24D-05.
     57 vectors produced by pass  5 Test12= 5.28D-15 1.67D-09 XBig12= 6.14D-10 3.40D-06.
     37 vectors produced by pass  6 Test12= 5.28D-15 1.67D-09 XBig12= 3.47D-12 2.23D-07.
      3 vectors produced by pass  7 Test12= 5.28D-15 1.67D-09 XBig12= 1.43D-14 1.33D-08.
 InvSVY:  IOpt=1 It=  1 EMax= 2.22D-15
 Solved reduced A of dimension   382 with    60 vectors.
 FullF1:  Do perturbations      1 to      60.
 Saving first derivative matrices.
 End of Minotr F.D. properties file   721 does not exist.
 End of Minotr F.D. properties file   722 does not exist.
 End of Minotr F.D. properties file   788 does not exist.
 Leave Link 1002 at Wed May 11 21:56:58 2022, MaxMem= 67108864000 cpu:              48.7 elap:               1.8
 (Enter /cm/shared/apps/gaussian/intel/EM64T/SSE4_2-enabled/binary//g16/l811.exe)
 MDV= 67108864000.
 Form MO integral derivatives with frozen-active canonical formalism.
 MOERI=1 MOERIx=1 NAtoms=    19 NAtomX=    19.
 Discarding MO integrals.
 MO basis two electron integral derivatives will not be stored on disk.
 IAlg= 3 DoFC=T DoPWx=T Debug=F.
 Reordered first order wavefunction length =     20072448
 In DefCFB: NBatch=  1 ICI= 33 ICA= 96 LFMax= 96
            Large arrays: LIAPS=   210874752 LIARS=   111567456 words.
 In StABat: MaxSiz= 39 MinSiz= 13 NAtomB=  4
 DoIAMN: NPSUse= 28.
 Leave Link  811 at Wed May 11 21:57:44 2022, MaxMem= 67108864000 cpu:            1258.8 elap:              45.2
 (Enter /cm/shared/apps/gaussian/intel/EM64T/SSE4_2-enabled/binary//g16/l804.exe)
 Closed-shell transformation, MDV= 67108864000 ITran=4 ISComp=1.
 Semi-Direct transformation.
 ModeAB=           4 MOrb=            33 LenV=   67108312540
 LASXX=     28702344 LTotXX=    28702344 LenRXX=    58192761
 LTotAB=    29490417 MaxLAS=    34294392 LenRXY=           0
 NonZer=    86895105 LenScr=   131092480 LnRSAI=    34294392
 LnScr1=    52210688 LExtra=           0 Total=    275790321
 MaxDsk=          -1 SrtSym=           T ITran=            4
 DoSDTr:  NPSUse= 28
 JobTyp=0 Pass  1:  I=   1 to  33.
 (rs|ai) integrals will be sorted in core.
 Complete sort for first half transformation.
 First half transformation complete.
 Begin second half transformation for I=  10.
 Begin second half transformation for I=  20.
 Begin second half transformation for I=  30.
 Complete sort for second half transformation.
 Second half transformation complete.
 SymMOI:  orbitals are not symmetric.
 Spin components of T(2) and E(2):
     alpha-alpha T2 =       0.3590504056D-01 E2=     -0.1157667798D+00
     alpha-beta  T2 =       0.2106402849D+00 E2=     -0.6906626351D+00
     beta-beta   T2 =       0.3590504056D-01 E2=     -0.1157667798D+00
 ANorm=    0.1601530747D+01
 E2 =    -0.9221961948D+00 EUMP2 =    -0.25437103492691D+03
 Leave Link  804 at Wed May 11 21:57:49 2022, MaxMem= 67108864000 cpu:             142.4 elap:               5.1
 (Enter /cm/shared/apps/gaussian/intel/EM64T/SSE4_2-enabled/binary//g16/l1002.exe)
 Minotr:  Closed shell wavefunction.
          Computing MP2/KS-MP2 derivatives.
          Using Z-Vector for PSCF gradient.
          Skipping F1 and S1 gradient terms here.
          IDoAtm=1111111111111111111
          Using MO integrals in the linear equations.
          Forming densities via direct SCF.
          Differentiating once with respect to electric field.
                with respect to dipole field.
          Differentiating once with respect to nuclear coordinates.
          Requested convergence is 1.0D-10 RMS, and 1.0D-09 maximum.
          NewPWx=F KeepS1=T KeepF1=T KeepIn=T MapXYZ=F SortEE=F KeepMc=T.
          MDV=   67108864000 using IRadAn=       5.
          Solving linear equations separately, MaxMat=       0.
          There are     1 degrees of freedom in the 1st order CPHF.  IDoFFX=0 NUNeed=     1.
 FoFJK:  IHMeth= 1 ICntrl=       0 DoSepK=F KAlg= 0 I1Cent=           0 FoldK=F
 IRaf=         0 NMat=       1 IRICut=       1 DoRegI=T DoRafI=F ISym2E= 0 IDoP0=0 IntGTp=1.
 FoFCou: FMM=F IPFlag=           0 FMFlag=      100000 FMFlg1=           0
         NFxFlg=           0 DoJE=F BraDBF=F KetDBF=F FulRan=T
         wScrn=  0.000000 ICntrl=         0 IOpCl=  0 I1Cent=           0 NGrid=           0
         NMat0=    1 NMatS0=      1 NMatT0=    0 NMatD0=    1 NMtDS0=    0 NMtDT0=    0
 Symmetry not used in FoFCou.
 LinEq1:  Iter=  0 NonCon=     1 RMS=6.32D-03 Max=8.52D-02 NDo=     1
 LinEq1:  Iter=  1 NonCon=     1 RMS=1.37D-03 Max=1.19D-02 NDo=     1
 LinEq1:  Iter=  2 NonCon=     1 RMS=4.35D-04 Max=7.02D-03 NDo=     1
 LinEq1:  Iter=  3 NonCon=     1 RMS=1.29D-04 Max=2.05D-03 NDo=     1
 LinEq1:  Iter=  4 NonCon=     1 RMS=4.51D-05 Max=6.89D-04 NDo=     1
 LinEq1:  Iter=  5 NonCon=     1 RMS=1.01D-05 Max=7.66D-05 NDo=     1
 LinEq1:  Iter=  6 NonCon=     1 RMS=4.45D-06 Max=4.42D-05 NDo=     1
 LinEq1:  Iter=  7 NonCon=     1 RMS=7.75D-07 Max=7.64D-06 NDo=     1
 LinEq1:  Iter=  8 NonCon=     1 RMS=1.45D-07 Max=1.22D-06 NDo=     1
 LinEq1:  Iter=  9 NonCon=     1 RMS=6.71D-08 Max=6.47D-07 NDo=     1
 LinEq1:  Iter= 10 NonCon=     1 RMS=1.77D-08 Max=2.25D-07 NDo=     1
 LinEq1:  Iter= 11 NonCon=     1 RMS=3.24D-09 Max=3.34D-08 NDo=     1
 LinEq1:  Iter= 12 NonCon=     1 RMS=1.55D-09 Max=1.33D-08 NDo=     1
 LinEq1:  Iter= 13 NonCon=     1 RMS=3.22D-10 Max=3.27D-09 NDo=     1
 LinEq1:  Iter= 14 NonCon=     0 RMS=6.11D-11 Max=5.88D-10 NDo=     1
 Linear equations converged to 1.000D-10 1.000D-09 after    14 iterations.
 End of Minotr F.D. properties file   721 does not exist.
 End of Minotr F.D. properties file   722 does not exist.
 End of Minotr F.D. properties file   788 does not exist.
 Leave Link 1002 at Wed May 11 21:57:51 2022, MaxMem= 67108864000 cpu:              68.1 elap:               2.5
 (Enter /cm/shared/apps/gaussian/intel/EM64T/SSE4_2-enabled/binary//g16/l1102.exe)
 Use density number 2.
 Symmetrizing basis deriv contribution to polar:
 IMax=3 JMax=2 DiffMx= 0.00D+00
 Leave Link 1102 at Wed May 11 21:57:51 2022, MaxMem= 67108864000 cpu:               0.6 elap:               0.0
 (Enter /cm/shared/apps/gaussian/intel/EM64T/SSE4_2-enabled/binary//g16/l1110.exe)
 Forming Gx(P) for generalized density number  2 NAtomX=    19.
 Integral derivatives from FoFJK, PRISM(SPDF).
 Do as many integral derivatives as possible in FoFJK.
 G2DrvN: MDV=   67108862534.
 G2DrvN: will do    20 centers at a time, making    1 passes.
 Calling FoFCou, ICntrl=  3107 FMM=F I1Cent=   0 AccDes= 0.00D+00.
 FoFJK:  IHMeth= 1 ICntrl=    3107 DoSepK=F KAlg= 0 I1Cent=           0 FoldK=F
 IRaf=         0 NMat=       1 IRICut=       1 DoRegI=T DoRafI=F ISym2E= 0 IDoP0=0 IntGTp=1.
 FoFCou: FMM=F IPFlag=           0 FMFlag=      100000 FMFlg1=           0
         NFxFlg=           0 DoJE=F BraDBF=F KetDBF=F FulRan=T
         wScrn=  0.000000 ICntrl=      3107 IOpCl=  0 I1Cent=           0 NGrid=           0
         NMat0=    1 NMatS0=      1 NMatT0=    0 NMatD0=    1 NMtDS0=    0 NMtDT0=    0
 Symmetry not used in FoFCou.
 End of G2Drv F.D. properties file   721 does not exist.
 End of G2Drv F.D. properties file   722 does not exist.
 End of G2Drv F.D. properties file   788 does not exist.
 Leave Link 1110 at Wed May 11 21:57:52 2022, MaxMem= 67108864000 cpu:              13.4 elap:               0.5
 (Enter /cm/shared/apps/gaussian/intel/EM64T/SSE4_2-enabled/binary//g16/l1112.exe)
 MP22nd: MDV=   67108864000
 This link is doing NAtomX=    19 total of    60 degrees of freedom.
 Using ON3 I/O method in MakUI.
 Using Ix for Sx.
 Using OV2 memory method for fx*t*t/D, MaxI=    33 DoOO2=F NP=  28.
 R2 and R3 integrals will be kept in memory, NReq=    71415045.
 FoFCou: FMM=F IPFlag=           0 FMFlag=           0 FMFlg1=           0
         NFxFlg=           0 DoJE=F BraDBF=F KetDBF=F FulRan=T
         wScrn=  0.000000 ICntrl=       600 IOpCl=  0 I1Cent=           0 NGrid=           0
         NMat0=    1 NMatS0=      1 NMatT0=    0 NMatD0=    1 NMtDS0=    0 NMtDT0=    0
 Symmetry not used in FoFCou.
 DD1Dir will call FoFMem   1 times, MxPair=      1122
 NAB=   561 NAA=     0 NBB=     0.
 Symmetry is being used.
 FoFJK:  IHMeth= 1 ICntrl=       0 DoSepK=F KAlg= 0 I1Cent=           0 FoldK=F
 IRaf=         0 NMat=      60 IRICut=     150 DoRegI=T DoRafI=T ISym2E= 2 IDoP0=0 IntGTp=1.
 Discarding MO integrals.
 Leave Link 1112 at Wed May 11 21:58:23 2022, MaxMem= 67108864000 cpu:             870.2 elap:              31.2
 (Enter /cm/shared/apps/gaussian/intel/EM64T/SSE4_2-enabled/binary//g16/l601.exe)
 Copying SCF densities to generalized density rwf, IOpCl= 0 IROHF=0.

 **********************************************************************

            Population analysis using the SCF density.

 **********************************************************************

 Orbital symmetries:
       Occupied  (A) (A) (A) (A) (A) (A) (A) (A) (A) (A) (A) (A)
                 (A) (A) (A) (A) (A) (A) (A) (A) (A) (A) (A) (A)
                 (A) (A) (A) (A) (A) (A) (A) (A) (A)
       Virtual   (A) (A) (A) (A) (A) (A) (A) (A) (A) (A) (A) (A)
                 (A) (A) (A) (A) (A) (A) (A) (A) (A) (A) (A) (A)
                 (A) (A) (A) (A) (A) (A) (A) (A) (A) (A) (A) (A)
                 (A) (A) (A) (A) (A) (A) (A) (A) (A) (A) (A) (A)
                 (A) (A) (A) (A) (A) (A) (A) (A) (A) (A) (A) (A)
                 (A) (A) (A) (A) (A) (A) (A) (A) (A) (A) (A) (A)
                 (A) (A) (A) (A) (A) (A) (A) (A) (A) (A) (A) (A)
                 (A) (A) (A) (A) (A) (A) (A) (A) (A) (A) (A) (A)
 The electronic state is 1-A.
 Alpha  occ. eigenvalues --   -5.41371  -3.41059  -3.40660  -3.40457  -1.69556
 Alpha  occ. eigenvalues --   -1.67717  -1.66633  -1.66137  -1.64478  -1.63967
 Alpha  occ. eigenvalues --   -1.07427  -1.05838  -1.05697  -1.02776  -1.01283
 Alpha  occ. eigenvalues --   -1.00899  -1.00483  -0.99637  -0.98434  -0.97471
 Alpha  occ. eigenvalues --   -0.96746  -0.94669  -0.91241  -0.87801  -0.86515
 Alpha  occ. eigenvalues --   -0.86022  -0.83699  -0.83463  -0.81517  -0.81117
 Alpha  occ. eigenvalues --   -0.80718  -0.80173  -0.78027
 Alpha virt. eigenvalues --   -0.24067  -0.18157  -0.16257  -0.14771  -0.14358
 Alpha virt. eigenvalues --   -0.10795  -0.09669  -0.08215  -0.07927  -0.06654
 Alpha virt. eigenvalues --   -0.05485  -0.04902  -0.03727  -0.03253  -0.01724
 Alpha virt. eigenvalues --   -0.00813  -0.00246   0.00687   0.01251   0.01736
 Alpha virt. eigenvalues --    0.02152   0.02744   0.03950   0.04327   0.05256
 Alpha virt. eigenvalues --    0.05402   0.07270   0.08500   0.09010   0.09952
 Alpha virt. eigenvalues --    0.11450   0.11988   0.13051   0.14048   0.15942
 Alpha virt. eigenvalues --    0.17083   0.17612   0.17954   0.20080   0.22564
 Alpha virt. eigenvalues --    0.23336   0.24195   0.26334   0.28090   0.36851
 Alpha virt. eigenvalues --    0.64445   0.68408   0.68925   0.70395   0.93684
 Alpha virt. eigenvalues --    0.98527   1.05387   1.06463   1.07325   1.08996
 Alpha virt. eigenvalues --    1.09498   1.10019   1.10432   1.10954   1.11906
 Alpha virt. eigenvalues --    1.14182   1.14378   1.14966   1.15910   1.16152
 Alpha virt. eigenvalues --    1.17598   1.18538   1.19996   1.20753   1.22688
 Alpha virt. eigenvalues --    1.24075   1.25050   1.25798   1.28822   1.30609
 Alpha virt. eigenvalues --    1.31867   1.34076   1.35628   1.37117   1.38362
 Alpha virt. eigenvalues --    1.41061   1.47035   1.52774   1.55723   2.17491
 Alpha virt. eigenvalues --    2.28404   2.39762   2.54487   2.84426   3.07556
 Alpha virt. eigenvalues --    4.26390  15.49895  41.60339  41.67128  41.74771
 Alpha virt. eigenvalues --   81.48049
          Condensed to atoms (all electrons):
               1          2          3          4          5          6
     1  Hg  18.385066   0.000377  -0.002583   0.000741  -0.006004   0.106614
     2  H    0.000377   0.243485   0.260225  -0.014619  -0.000000   0.000002
     3  O   -0.002583   0.260225   6.393959   0.262448   0.000008  -0.000049
     4  H    0.000741  -0.014619   0.262448   0.238026  -0.000000   0.000002
     5  H   -0.006004  -0.000000   0.000008  -0.000000   0.236052   0.243729
     6  O    0.106614   0.000002  -0.000049   0.000002   0.243729   6.596988
     7  H   -0.001671   0.000000   0.000001   0.000000  -0.006771   0.156968
     8  H   -0.003590  -0.000001   0.000187  -0.000014   0.000000   0.000030
     9  O    0.122368   0.000714  -0.036173   0.000638  -0.000158  -0.000076
    10  H   -0.003270  -0.001040   0.051427  -0.001167   0.000000  -0.000004
    11  H   -0.004135   0.000000   0.000001   0.000000  -0.000000   0.000045
    12  O    0.026565   0.000000  -0.000034  -0.000001   0.000194  -0.003841
    13  H   -0.001749  -0.000000   0.000001  -0.000000  -0.000001   0.000294
    14  H    0.000249   0.000000  -0.000000   0.000000  -0.000018   0.001578
    15  O   -0.000283   0.000000   0.000002  -0.000000   0.001007  -0.055223
    16  H    0.000729   0.000000  -0.000000  -0.000000  -0.000038   0.001519
    17  H    0.001145  -0.000000  -0.000001  -0.000000  -0.000000  -0.000001
    18  O   -0.010633   0.000058  -0.000990   0.000007   0.000001  -0.000012
    19  H    0.000634  -0.000000   0.000042  -0.000000   0.000000   0.000001
               7          8          9         10         11         12
     1  Hg  -0.001671  -0.003590   0.122368  -0.003270  -0.004135   0.026565
     2  H    0.000000  -0.000001   0.000714  -0.001040   0.000000   0.000000
     3  O    0.000001   0.000187  -0.036173   0.051427   0.000001  -0.000034
     4  H    0.000000  -0.000014   0.000638  -0.001167   0.000000  -0.000001
     5  H   -0.006771   0.000000  -0.000158   0.000000  -0.000000   0.000194
     6  O    0.156968   0.000030  -0.000076  -0.000004   0.000045  -0.003841
     7  H    0.140594   0.000000   0.000044   0.000000  -0.000000   0.000057
     8  H    0.000000   0.170244   0.207736  -0.004245  -0.000053   0.000296
     9  O    0.000044   0.207736   6.647585   0.180394   0.001222  -0.006256
    10  H    0.000000  -0.004245   0.180394   0.145972   0.000002   0.000212
    11  H   -0.000000  -0.000053   0.001222   0.000002   0.228172   0.253334
    12  O    0.000057   0.000296  -0.006256   0.000212   0.253334   6.453093
    13  H    0.000002   0.000010   0.000052  -0.000000  -0.013566   0.258806
    14  H   -0.002136  -0.000000   0.000002   0.000000   0.000000   0.000010
    15  O    0.081082   0.000002  -0.000039   0.000000   0.000011  -0.000387
    16  H   -0.002198   0.000000   0.000000  -0.000000  -0.000000  -0.000059
    17  H    0.000000  -0.000595  -0.000321  -0.000007   0.000067  -0.000064
    18  O    0.000002   0.027820  -0.016985   0.000287   0.003134  -0.010994
    19  H   -0.000000  -0.000618  -0.000244   0.000001  -0.000114  -0.000025
              13         14         15         16         17         18
     1  Hg  -0.001749   0.000249  -0.000283   0.000729   0.001145  -0.010633
     2  H   -0.000000   0.000000   0.000000   0.000000  -0.000000   0.000058
     3  O    0.000001  -0.000000   0.000002  -0.000000  -0.000001  -0.000990
     4  H   -0.000000   0.000000  -0.000000  -0.000000  -0.000000   0.000007
     5  H   -0.000001  -0.000018   0.001007  -0.000038  -0.000000   0.000001
     6  O    0.000294   0.001578  -0.055223   0.001519  -0.000001  -0.000012
     7  H    0.000002  -0.002136   0.081082  -0.002198   0.000000   0.000002
     8  H    0.000010  -0.000000   0.000002   0.000000  -0.000595   0.027820
     9  O    0.000052   0.000002  -0.000039   0.000000  -0.000321  -0.016985
    10  H   -0.000000   0.000000   0.000000  -0.000000  -0.000007   0.000287
    11  H   -0.013566   0.000000   0.000011  -0.000000   0.000067   0.003134
    12  O    0.258806   0.000010  -0.000387  -0.000059  -0.000064  -0.010994
    13  H    0.243240  -0.000000  -0.000010   0.000001  -0.000006   0.000735
    14  H   -0.000000   0.237855   0.257552  -0.013063  -0.000000   0.000000
    15  O   -0.000010   0.257552   6.360768   0.259039  -0.000000   0.000007
    16  H    0.000001  -0.013063   0.259039   0.232473   0.000000  -0.000000
    17  H   -0.000006  -0.000000  -0.000000   0.000000   0.241597   0.264793
    18  O    0.000735   0.000000   0.000007  -0.000000   0.264793   6.442953
    19  H   -0.000000  -0.000000  -0.000000  -0.000000  -0.015805   0.261629
              19
     1  Hg   0.000634
     2  H   -0.000000
     3  O    0.000042
     4  H   -0.000000
     5  H    0.000000
     6  O    0.000001
     7  H   -0.000000
     8  H   -0.000618
     9  O   -0.000244
    10  H    0.000001
    11  H   -0.000114
    12  O   -0.000025
    13  H   -0.000000
    14  H   -0.000000
    15  O   -0.000000
    16  H   -0.000000
    17  H   -0.015805
    18  O    0.261629
    19  H    0.247968
 Mulliken charges:
               1
     1  Hg   1.389430
     2  H    0.510799
     3  O   -0.928470
     4  H    0.513939
     5  H    0.531997
     6  O   -1.048565
     7  H    0.634025
     8  H    0.602791
     9  O   -1.100503
    10  H    0.631438
    11  H    0.531882
    12  O   -0.970908
    13  H    0.512190
    14  H    0.517972
    15  O   -0.903527
    16  H    0.521597
    17  H    0.509197
    18  O   -0.961814
    19  H    0.506532
 Sum of Mulliken charges =   2.00000
 Mulliken charges with hydrogens summed into heavy atoms:
               1
     1  Hg   1.389430
     3  O    0.096267
     6  O    0.117457
     9  O    0.133726
    12  O    0.073164
    15  O    0.136041
    18  O    0.053915
         Mulliken charges condensed to fragments:
      1      1.389430
      2      0.610570
 APT charges:
               1
     1  Hg   1.496167
     2  H    0.379094
     3  O   -0.794105
     4  H    0.387175
     5  H    0.345337
     6  O   -0.955547
     7  H    0.872819
     8  H    0.588512
     9  O   -1.065552
    10  H    0.782164
    11  H    0.412332
    12  O   -0.775019
    13  H    0.352330
    14  H    0.392022
    15  O   -0.814721
    16  H    0.401562
    17  H    0.374405
    18  O   -0.746525
    19  H    0.367551
 Sum of APT charges =   2.00000
 APT charges with hydrogens summed into heavy atoms:
               1
     1  Hg   1.496167
     3  O   -0.027836
     6  O    0.262608
     9  O    0.305124
    12  O   -0.010356
    15  O   -0.021138
    18  O   -0.004569
         APT charges condensed to fragments:
      1      1.496167
      2      0.503833
 Electronic spatial extent (au):  <R**2>=           1853.0725
 Charge=              2.0000 electrons
 Dipole moment (field-independent basis, Debye):
    X=              1.3470    Y=              0.9628    Z=             -0.3207  Tot=              1.6865
 Quadrupole moment (field-independent basis, Debye-Ang):
   XX=             50.8006   YY=            -18.4576   ZZ=            -49.3768
   XY=              6.3238   XZ=             -4.8506   YZ=             -4.2809
 Traceless Quadrupole moment (field-independent basis, Debye-Ang):
   XX=             56.4786   YY=            -12.7797   ZZ=            -43.6989
   XY=              6.3238   XZ=             -4.8506   YZ=             -4.2809
 Octapole moment (field-independent basis, Debye-Ang**2):
  XXX=            -66.8876  YYY=             30.6393  ZZZ=              1.5261  XYY=             75.2000
  XXY=            -27.2982  XXZ=             23.6591  XZZ=             -3.7116  YZZ=             -3.5737
  YYZ=             -8.9398  XYZ=              7.7548
 Hexadecapole moment (field-independent basis, Debye-Ang**3):
 XXXX=            416.4673 YYYY=           -362.9050 ZZZZ=            -72.5805 XXXY=           -129.0491
 XXXZ=           -132.2187 YYYX=            109.8099 YYYZ=            -27.9221 ZZZX=            -24.1692
 ZZZY=             -1.1590 XXYY=             -7.8810 XXZZ=           -171.6766 YYZZ=            -79.6126
 XXYZ=            -20.6148 YYXZ=             47.7294 ZZXY=             -0.8265
 N-N= 3.394805567983D+02 E-N=-1.224047405045D+03  KE= 1.320623688963D+02
  Exact polarizability:  71.593  -1.477  55.764   1.034  -0.229  44.422
 Approx polarizability:  40.036  -1.057  34.933   0.129  -0.453  33.114
 No NMR shielding tensors so no spin-rotation constants.
 Leave Link  601 at Wed May 11 21:58:23 2022, MaxMem= 67108864000 cpu:               4.3 elap:               0.2
 (Enter /cm/shared/apps/gaussian/intel/EM64T/SSE4_2-enabled/binary//g16/l701.exe)
 ... and contract with generalized density number  2.
 Compute integral second derivatives.
   1 Symmetry operations used in ECPInt.
 ECPInt:  NShTT=    2346 NPrTT=    7709 LenC2=    2305 LenP2D=    5904.
 LDataN:  DoStor=T MaxTD1= 9 Len=  602
 Leave Link  701 at Wed May 11 21:58:25 2022, MaxMem= 67108864000 cpu:              39.8 elap:               1.5
 (Enter /cm/shared/apps/gaussian/intel/EM64T/SSE4_2-enabled/binary//g16/l702.exe)
 L702 exits ... SP integral derivatives will be done elsewhere.
 Leave Link  702 at Wed May 11 21:58:25 2022, MaxMem= 67108864000 cpu:               0.7 elap:               0.0
 (Enter /cm/shared/apps/gaussian/intel/EM64T/SSE4_2-enabled/binary//g16/l703.exe)
 Integral derivatives from FoFJK, PRISM(SPDF).
 Compute integral second derivatives, UseDBF=F ICtDFT=           0.
 Calling FoFJK, ICntrl=  10100127 FMM=F ISym2X=0 I1Cent= 0 IOpClX= 0 NMat=1 NMatS=1 NMatT=0.
 FoFJK:  IHMeth= 1 ICntrl=10100127 DoSepK=F KAlg= 0 I1Cent=           0 FoldK=F
 IRaf=         0 NMat=       1 IRICut=       1 DoRegI=T DoRafI=F ISym2E= 0 IDoP0=0 IntGTp=1.
 FoFCou: FMM=F IPFlag=           0 FMFlag=      100000 FMFlg1=         800
         NFxFlg=           0 DoJE=F BraDBF=F KetDBF=F FulRan=T
         wScrn=  0.000000 ICntrl=  10100127 IOpCl=  0 I1Cent=           0 NGrid=           0
         NMat0=    1 NMatS0=      1 NMatT0=    0 NMatD0=    1 NMtDS0=    0 NMtDT0=    0
 Symmetry not used in FoFCou.
 Leave Link  703 at Wed May 11 21:58:26 2022, MaxMem= 67108864000 cpu:              20.8 elap:               0.8
 (Enter /cm/shared/apps/gaussian/intel/EM64T/SSE4_2-enabled/binary//g16/l716.exe)
 Dipole        = 5.09295180D-01 4.65396262D-01-9.65816584D-02
 Polarizability= 7.15933569D+01-1.47715116D+00 5.57639052D+01
                 1.03385170D+00-2.29362928D-01 4.44218181D+01
 Full mass-weighted force constant matrix:
 Low frequencies --- -345.3294 -326.5060 -301.1214 -164.8640 -107.8938  -98.0008
 Low frequencies ---  -71.9635  -35.4832  -32.5515
 ******    6 imaginary frequencies (negative Signs) ****** 
 Diagonal vibrational polarizability:
      222.8668216     968.4447188     347.9403780
 Harmonic frequencies (cm**-1), IR intensities (KM/Mole), Raman scattering
 activities (A**4/AMU), depolarization ratios for plane and unpolarized
 incident light, reduced masses (AMU), force constants (mDyne/A),
 and normal coordinates:
                      1                      2                      3
                      A                      A                      A
 Frequencies --   -344.3279              -326.2469              -300.1744
 Red. masses --      1.0221                 1.0266                 1.0430
 Frc consts  --      0.0714                 0.0644                 0.0554
 IR Inten    --     25.6430                31.1058                44.0060
  Atom  AN      X      Y      Z        X      Y      Z        X      Y      Z
     1  80    -0.00   0.00  -0.00    -0.00  -0.00   0.00    -0.00  -0.00   0.00
     2   1    -0.42  -0.51  -0.27    -0.02  -0.02  -0.01     0.01   0.00   0.01
     3   8    -0.00  -0.00   0.02     0.00  -0.00   0.01     0.00   0.00   0.01
     4   1     0.43   0.54   0.03     0.02   0.02   0.01    -0.01  -0.00   0.01
     5   1     0.00   0.00   0.00    -0.00   0.01   0.01    -0.01   0.01  -0.05
     6   8     0.00   0.00  -0.00    -0.00   0.01   0.00     0.00   0.01  -0.01
     7   1    -0.00   0.00  -0.01    -0.01   0.02   0.00    -0.01   0.01  -0.05
     8   1    -0.00   0.00  -0.01     0.00  -0.01  -0.07    -0.00   0.00   0.01
     9   8     0.00  -0.00  -0.01     0.00   0.00  -0.01    -0.00   0.00   0.00
    10   1    -0.00   0.01  -0.07     0.00  -0.00  -0.00    -0.00   0.00   0.00
    11   1     0.01  -0.00  -0.01    -0.11   0.10   0.44     0.02  -0.02  -0.06
    12   8     0.00   0.00   0.01    -0.02  -0.00  -0.01     0.01   0.00  -0.01
    13   1    -0.01   0.01   0.03     0.29  -0.14  -0.43    -0.01   0.03   0.03
    14   1    -0.00  -0.01  -0.01    -0.03  -0.07  -0.04    -0.26  -0.58  -0.29
    15   8    -0.00  -0.00  -0.00     0.00  -0.00   0.00     0.01  -0.01   0.04
    16   1     0.00   0.00  -0.00     0.03   0.10  -0.00     0.20   0.66   0.00
    17   1    -0.02   0.00   0.02     0.43  -0.25   0.00    -0.07   0.06  -0.02
    18   8    -0.00   0.00   0.01     0.00   0.01   0.02    -0.00   0.00  -0.02
    19   1     0.02  -0.01   0.03    -0.36   0.22  -0.21     0.06  -0.05   0.02
                      4                      5                      6
                      A                      A                      A
 Frequencies --   -158.4356              -105.7890               -83.8699
 Red. masses --      1.4616                 2.4483                 2.4027
 Frc consts  --      0.0216                 0.0161                 0.0100
 IR Inten    --      9.6336                 8.6609                49.2774
  Atom  AN      X      Y      Z        X      Y      Z        X      Y      Z
     1  80    -0.00   0.00  -0.00     0.00   0.00  -0.00     0.00  -0.00  -0.02
     2   1     0.07  -0.04   0.11     0.04  -0.02  -0.03     0.17  -0.18   0.29
     3   8     0.01  -0.01   0.06     0.01  -0.02  -0.06     0.00  -0.06   0.15
     4   1    -0.05   0.01   0.11    -0.03  -0.02  -0.04    -0.18   0.03   0.30
     5   1     0.01  -0.03   0.03     0.02  -0.13   0.52    -0.04   0.07  -0.16
     6   8     0.00  -0.03   0.01    -0.01  -0.11   0.19    -0.01   0.06  -0.03
     7   1     0.01  -0.03  -0.02    -0.01  -0.01   0.09     0.00   0.03   0.04
     8   1     0.02  -0.01  -0.18     0.03  -0.00  -0.13     0.02  -0.01  -0.19
     9   8     0.01   0.01  -0.07     0.03   0.00  -0.10     0.02   0.00  -0.12
    10   1     0.01  -0.01  -0.03     0.02  -0.01  -0.10     0.02  -0.02  -0.08
    11   1     0.05  -0.05  -0.07     0.02  -0.02  -0.05    -0.01   0.01  -0.10
    12   8     0.01  -0.00   0.12     0.01  -0.01  -0.06    -0.01  -0.00  -0.06
    13   1    -0.26   0.24   0.59     0.05  -0.03  -0.12    -0.03  -0.03  -0.06
    14   1    -0.07  -0.02  -0.08    -0.25   0.10  -0.18     0.18  -0.05   0.22
    15   8    -0.01   0.01  -0.05    -0.04   0.08  -0.09     0.03  -0.02   0.16
    16   1     0.03   0.04  -0.09     0.12   0.14  -0.25    -0.07  -0.04   0.28
    17   1     0.28  -0.32   0.01    -0.25  -0.14   0.28    -0.24  -0.21   0.29
    18   8    -0.00   0.00  -0.07    -0.03   0.04   0.10    -0.04   0.03   0.08
    19   1    -0.28   0.32  -0.17     0.12   0.25   0.32     0.07   0.32   0.30
                      7                      8                      9
                      A                      A                      A
 Frequencies --     15.7341                53.8714                67.6599
 Red. masses --      5.2238                 5.1708                 4.3664
 Frc consts  --      0.0008                 0.0088                 0.0118
 IR Inten    --      7.9217                 5.0573                 8.1940
  Atom  AN      X      Y      Z        X      Y      Z        X      Y      Z
     1  80    -0.00  -0.05   0.00    -0.04   0.00  -0.02     0.01   0.00   0.06
     2   1     0.16   0.28  -0.05     0.33   0.24   0.11     0.11   0.01  -0.12
     3   8     0.20   0.18  -0.01     0.29   0.17   0.08     0.10  -0.03  -0.12
     4   1     0.28   0.19  -0.05     0.31   0.25   0.11     0.11  -0.03  -0.12
     5   1    -0.15   0.13  -0.14    -0.05  -0.01   0.17    -0.07   0.24  -0.41
     6   8    -0.04   0.11  -0.06    -0.06  -0.00   0.09    -0.02   0.21  -0.09
     7   1     0.03   0.18  -0.05    -0.08  -0.00   0.08    -0.07   0.12  -0.05
     8   1    -0.06   0.00  -0.01    -0.00  -0.07   0.03     0.06  -0.08  -0.24
     9   8    -0.02  -0.01   0.01    -0.03  -0.07  -0.02     0.06  -0.07  -0.14
    10   1     0.04   0.03   0.02     0.02  -0.03   0.00     0.05  -0.09  -0.13
    11   1    -0.12  -0.01  -0.02     0.22  -0.06   0.07    -0.01  -0.00  -0.22
    12   8    -0.10  -0.05   0.02     0.18   0.03   0.00    -0.00  -0.02  -0.12
    13   1    -0.16  -0.06   0.07     0.27   0.11  -0.02    -0.08  -0.05  -0.07
    14   1     0.12   0.38   0.02    -0.11  -0.08   0.05    -0.19  -0.10  -0.12
    15   8     0.11   0.34   0.00    -0.11  -0.07   0.06    -0.19  -0.08  -0.12
    16   1     0.10   0.40   0.03    -0.10  -0.10   0.04    -0.18  -0.19  -0.16
    17   1    -0.13  -0.02   0.04     0.24  -0.08  -0.01    -0.15  -0.28   0.13
    18   8    -0.12   0.02   0.01     0.19  -0.12   0.03    -0.03  -0.03  -0.04
    19   1    -0.14   0.10   0.03     0.21  -0.23   0.00     0.01   0.26   0.11
                     10                     11                     12
                      A                      A                      A
 Frequencies --     98.0724               115.3798               133.6612
 Red. masses --      4.6759                 6.0807                 4.5581
 Frc consts  --      0.0265                 0.0477                 0.0480
 IR Inten    --      1.9018                 5.0099                 2.9808
  Atom  AN      X      Y      Z        X      Y      Z        X      Y      Z
     1  80    -0.04  -0.02   0.04    -0.02   0.07   0.02    -0.00   0.01  -0.01
     2   1    -0.11   0.14  -0.12     0.13   0.01  -0.07    -0.08   0.03  -0.09
     3   8    -0.08   0.09  -0.09     0.17  -0.10  -0.03     0.03  -0.06  -0.00
     4   1    -0.04   0.05  -0.13     0.26  -0.10  -0.08     0.15  -0.12  -0.10
     5   1     0.07  -0.11  -0.27     0.18  -0.24   0.04    -0.04   0.03   0.05
     6   8     0.04  -0.11  -0.16     0.07  -0.22  -0.11    -0.03   0.03   0.03
     7   1     0.05  -0.14  -0.14     0.10  -0.23  -0.15    -0.02   0.04   0.03
     8   1    -0.02   0.10  -0.19     0.07  -0.24  -0.04     0.01  -0.13   0.09
     9   8    -0.03   0.13  -0.07     0.03  -0.21   0.02     0.01  -0.10   0.13
    10   1    -0.04   0.12  -0.04     0.00  -0.24   0.01     0.02  -0.11   0.13
    11   1     0.27  -0.07  -0.15    -0.08  -0.07  -0.13     0.39  -0.27   0.10
    12   8     0.23  -0.01  -0.10    -0.09  -0.07  -0.08     0.30  -0.09   0.00
    13   1     0.17   0.11   0.05    -0.15  -0.06  -0.00     0.38   0.10   0.10
    14   1     0.26   0.05   0.04     0.28  -0.01   0.03    -0.03  -0.00   0.05
    15   8     0.17  -0.00  -0.03     0.21  -0.02  -0.01    -0.05  -0.00   0.04
    16   1     0.09   0.02   0.06     0.14   0.06   0.09    -0.06  -0.03   0.05
    17   1     0.10  -0.22   0.20    -0.11  -0.34   0.08    -0.16   0.11  -0.06
    18   8     0.12   0.11   0.02    -0.12  -0.19   0.00    -0.28   0.15  -0.04
    19   1     0.11   0.42   0.14    -0.16  -0.00   0.04    -0.37   0.20  -0.10
                     13                     14                     15
                      A                      A                      A
 Frequencies --    156.5403               227.9937               269.5947
 Red. masses --      2.0825                 5.6937                 3.9022
 Frc consts  --      0.0301                 0.1744                 0.1671
 IR Inten    --      7.1717                 8.6239                14.6795
  Atom  AN      X      Y      Z        X      Y      Z        X      Y      Z
     1  80     0.01   0.00  -0.01     0.01  -0.03   0.00    -0.02  -0.01  -0.01
     2   1    -0.23   0.21  -0.16    -0.05   0.07  -0.02    -0.08   0.10  -0.18
     3   8    -0.05   0.05  -0.01    -0.02   0.03   0.01     0.14  -0.19   0.02
     4   1     0.15  -0.05  -0.18     0.01   0.01  -0.02     0.42  -0.35  -0.23
     5   1    -0.02   0.03   0.05     0.05   0.01   0.04    -0.02  -0.01   0.03
     6   8    -0.01   0.02   0.04     0.04   0.02   0.03    -0.02  -0.01  -0.00
     7   1     0.00   0.02   0.04    -0.00   0.04   0.06    -0.04   0.01   0.00
     8   1    -0.01  -0.01  -0.04    -0.07  -0.04  -0.08     0.10  -0.11  -0.02
     9   8    -0.03   0.03   0.15    -0.05  -0.04   0.00     0.04  -0.06   0.10
    10   1    -0.05  -0.00   0.19    -0.04  -0.05   0.02     0.02  -0.10   0.25
    11   1    -0.03  -0.00  -0.29     0.17   0.24  -0.02    -0.08   0.14  -0.08
    12   8    -0.02  -0.03  -0.14     0.04   0.48  -0.04    -0.09   0.13  -0.01
    13   1    -0.30   0.11   0.26     0.23   0.59  -0.13    -0.12   0.11  -0.01
    14   1    -0.04  -0.06   0.04     0.07   0.01  -0.01     0.03  -0.01   0.01
    15   8    -0.04  -0.01   0.06     0.08  -0.04  -0.02     0.01  -0.01   0.00
    16   1    -0.05  -0.01   0.07     0.10  -0.06  -0.05    -0.01   0.01   0.02
    17   1     0.18  -0.47   0.21    -0.21  -0.25   0.05     0.06   0.11   0.07
    18   8     0.02  -0.08   0.05    -0.17  -0.13  -0.04     0.15   0.25  -0.04
    19   1    -0.17   0.34   0.05    -0.13  -0.02   0.04     0.18   0.44   0.07
                     16                     17                     18
                      A                      A                      A
 Frequencies --    272.4495               311.5543               365.8647
 Red. masses --      1.5659                 1.2651                 2.4363
 Frc consts  --      0.0685                 0.0723                 0.1921
 IR Inten    --      9.1886                99.0892                97.5983
  Atom  AN      X      Y      Z        X      Y      Z        X      Y      Z
     1  80     0.00   0.00  -0.00     0.01  -0.00   0.00    -0.01  -0.00  -0.00
     2   1    -0.18   0.22  -0.09    -0.00   0.01  -0.00    -0.20   0.26  -0.13
     3   8    -0.03   0.03   0.04    -0.01   0.01  -0.01    -0.01  -0.01   0.05
     4   1     0.15  -0.10  -0.13    -0.02  -0.00  -0.01     0.22  -0.20  -0.19
     5   1     0.00   0.00  -0.01    -0.01  -0.08   0.55     0.04   0.14   0.48
     6   8     0.00   0.00  -0.00    -0.02  -0.04  -0.07     0.06   0.16   0.09
     7   1    -0.01   0.01   0.00    -0.04   0.13  -0.35    -0.06   0.32  -0.02
     8   1     0.03  -0.04  -0.24     0.00   0.00  -0.01    -0.00   0.00   0.01
     9   8    -0.01   0.02   0.03     0.01   0.00  -0.01    -0.04   0.00  -0.09
    10   1    -0.03  -0.04   0.16     0.01  -0.00  -0.01    -0.03  -0.03   0.13
    11   1     0.01  -0.04   0.14     0.01   0.01   0.01     0.01  -0.08  -0.00
    12   8    -0.00  -0.03   0.12     0.00   0.02   0.01    -0.01  -0.06  -0.01
    13   1     0.21  -0.24  -0.27     0.02   0.02  -0.01    -0.04   0.03   0.11
    14   1    -0.00   0.00  -0.01     0.36  -0.25   0.09     0.37  -0.26  -0.04
    15   8     0.00  -0.01  -0.01    -0.08   0.04  -0.02     0.15  -0.09  -0.08
    16   1     0.01  -0.00  -0.01    -0.41   0.12   0.39     0.03  -0.06   0.07
    17   1    -0.42  -0.31   0.18    -0.02  -0.00   0.00     0.08   0.12  -0.06
    18   8     0.01  -0.05  -0.12    -0.00  -0.00  -0.00    -0.01   0.00   0.04
    19   1     0.31   0.26   0.28     0.01   0.01   0.01    -0.06  -0.13  -0.06
                     19                     20                     21
                      A                      A                      A
 Frequencies --    370.0155               392.2113               464.7165
 Red. masses --      1.7517                 4.5467                 1.4406
 Frc consts  --      0.1413                 0.4121                 0.1833
 IR Inten    --     67.3756               149.0771                58.9056
  Atom  AN      X      Y      Z        X      Y      Z        X      Y      Z
     1  80    -0.01  -0.00  -0.00    -0.02  -0.00  -0.00     0.00  -0.00   0.00
     2   1     0.32  -0.37   0.21     0.31  -0.40   0.05     0.00  -0.01   0.01
     3   8    -0.01   0.04  -0.08     0.17  -0.20  -0.08     0.00  -0.00   0.01
     4   1    -0.38   0.38   0.31     0.04  -0.08   0.06    -0.01  -0.01   0.01
     5   1     0.01   0.05   0.21    -0.03   0.03   0.08     0.06  -0.05   0.72
     6   8     0.02   0.06   0.04    -0.01   0.03   0.02    -0.05   0.03  -0.14
     7   1    -0.04   0.14  -0.00    -0.06   0.09  -0.01     0.07   0.06   0.15
     8   1    -0.02  -0.09   0.00    -0.04   0.39  -0.03     0.01   0.01  -0.00
     9   8    -0.00  -0.08   0.12     0.03   0.35   0.11     0.01   0.01   0.00
    10   1    -0.02  -0.02  -0.24    -0.02   0.47   0.03     0.01   0.01   0.00
    11   1    -0.00  -0.02  -0.05    -0.02   0.10  -0.02     0.02  -0.04   0.00
    12   8    -0.01  -0.01   0.01     0.05  -0.01   0.02    -0.01  -0.00  -0.01
    13   1    -0.00  -0.06  -0.04    -0.02  -0.12  -0.02     0.02   0.05   0.01
    14   1     0.15  -0.10  -0.03     0.11  -0.07  -0.01    -0.37   0.16  -0.05
    15   8     0.07  -0.04  -0.04     0.02  -0.01  -0.03     0.02  -0.02   0.07
    16   1     0.02  -0.02   0.02    -0.03   0.01   0.04     0.31  -0.19  -0.32
    17   1    -0.06  -0.17   0.09    -0.08  -0.17   0.03    -0.01   0.00  -0.00
    18   8     0.03   0.04  -0.05    -0.06  -0.12  -0.00     0.00  -0.00  -0.00
    19   1     0.09   0.24   0.09    -0.05  -0.09   0.03    -0.00   0.01  -0.00
                     22                     23                     24
                      A                      A                      A
 Frequencies --    492.2132               577.5344               620.6344
 Red. masses --      1.1876                 4.2118                 1.4625
 Frc consts  --      0.1695                 0.8277                 0.3319
 IR Inten    --     85.0225                61.1067               586.4732
  Atom  AN      X      Y      Z        X      Y      Z        X      Y      Z
     1  80    -0.00   0.00   0.00    -0.01   0.00  -0.00     0.01   0.00   0.00
     2   1     0.01  -0.04   0.00    -0.25  -0.19  -0.10     0.26   0.57   0.15
     3   8     0.00   0.00  -0.01    -0.03   0.11   0.04    -0.05  -0.08  -0.02
     4   1    -0.03  -0.00   0.01    -0.18  -0.31  -0.09     0.29   0.58   0.12
     5   1    -0.03   0.01  -0.08    -0.24  -0.01  -0.10    -0.09  -0.01  -0.03
     6   8     0.00   0.00   0.00    -0.27  -0.01   0.02    -0.12  -0.01   0.00
     7   1     0.00   0.02  -0.01    -0.34   0.02   0.08    -0.15  -0.01   0.03
     8   1     0.10  -0.01  -0.00     0.23   0.02   0.03     0.02  -0.01   0.01
     9   8     0.04   0.03   0.01     0.32  -0.00   0.03    -0.03   0.01  -0.01
    10   1     0.01   0.00  -0.00     0.32  -0.02   0.01    -0.11  -0.05  -0.03
    11   1     0.21  -0.57   0.28     0.01   0.06  -0.20     0.03  -0.05  -0.04
    12   8    -0.08  -0.03  -0.03     0.01   0.03   0.01    -0.00   0.00   0.00
    13   1     0.36   0.60   0.07    -0.09  -0.16  -0.05     0.02  -0.00  -0.02
    14   1     0.03   0.01   0.01     0.18   0.12   0.04     0.06   0.11   0.04
    15   8    -0.00   0.00  -0.00     0.08  -0.08  -0.06     0.03  -0.04  -0.02
    16   1    -0.02  -0.00   0.02     0.05   0.21   0.06     0.02   0.14   0.04
    17   1    -0.11   0.07  -0.00     0.04   0.03  -0.03    -0.07   0.12  -0.03
    18   8     0.02  -0.02  -0.00    -0.01  -0.03   0.02     0.01  -0.01   0.01
    19   1     0.01   0.06   0.02    -0.09  -0.05  -0.05    -0.10   0.10  -0.04
                     25                     26                     27
                      A                      A                      A
 Frequencies --    636.7602               671.0373               682.5106
 Red. masses --      2.5736                 1.1561                 1.2932
 Frc consts  --      0.6148                 0.3067                 0.3549
 IR Inten    --     46.0350               124.9152               328.5868
  Atom  AN      X      Y      Z        X      Y      Z        X      Y      Z
     1  80    -0.03  -0.01  -0.01     0.00   0.00   0.00    -0.01  -0.00  -0.00
     2   1     0.10   0.44   0.09     0.04   0.13   0.03     0.03   0.11   0.02
     3   8    -0.06  -0.02   0.00    -0.01  -0.01  -0.00    -0.01  -0.00   0.00
     4   1     0.18   0.38   0.06     0.05   0.11   0.02     0.04   0.09   0.02
     5   1     0.11   0.02   0.03    -0.08  -0.00  -0.05     0.18   0.01   0.11
     6   8     0.17   0.01   0.00    -0.04  -0.01   0.00     0.08   0.03  -0.01
     7   1     0.22   0.04  -0.04     0.01   0.05   0.01    -0.00  -0.10  -0.04
     8   1     0.22   0.01   0.02    -0.04   0.00  -0.12     0.00   0.01  -0.06
     9   8     0.22   0.01   0.03     0.04  -0.00   0.01     0.05   0.00   0.01
    10   1     0.13  -0.07  -0.03     0.02  -0.02  -0.01     0.04  -0.02  -0.01
    11   1     0.01   0.04  -0.15    -0.20   0.29   0.49    -0.09   0.13   0.20
    12   8     0.01   0.02   0.01     0.01  -0.02  -0.04     0.01  -0.01  -0.02
    13   1    -0.04  -0.15  -0.08    -0.08   0.19   0.23    -0.05   0.08   0.12
    14   1    -0.09  -0.28  -0.10     0.02  -0.29  -0.10    -0.04   0.57   0.20
    15   8    -0.04   0.07   0.04     0.02   0.03   0.00    -0.03  -0.07  -0.01
    16   1    -0.03  -0.31  -0.08    -0.00  -0.29  -0.07     0.01   0.56   0.14
    17   1    -0.12   0.21  -0.07     0.10  -0.22   0.07     0.09  -0.14   0.04
    18   8     0.01  -0.04   0.02    -0.03   0.03  -0.02    -0.02   0.02  -0.01
    19   1    -0.20   0.14  -0.09     0.32  -0.32   0.13     0.18  -0.20   0.07
                     28                     29                     30
                      A                      A                      A
 Frequencies --    727.4161               960.7578              1058.4876
 Red. masses --      1.1240                 1.0572                 1.0532
 Frc consts  --      0.3504                 0.5750                 0.6952
 IR Inten    --    545.9223                55.1156               182.1403
  Atom  AN      X      Y      Z        X      Y      Z        X      Y      Z
     1  80    -0.00  -0.00   0.00     0.00  -0.00  -0.00    -0.00   0.00   0.00
     2   1    -0.03  -0.10  -0.02    -0.00  -0.00   0.00    -0.02   0.08  -0.01
     3   8     0.01   0.01   0.00    -0.00   0.00   0.00    -0.01  -0.01   0.01
     4   1    -0.05  -0.08  -0.01    -0.00  -0.00  -0.00     0.06  -0.02  -0.03
     5   1     0.02  -0.00   0.02     0.84  -0.09  -0.01    -0.00   0.00  -0.00
     6   8    -0.00   0.00   0.00    -0.03   0.03   0.00    -0.00   0.00   0.00
     7   1    -0.01  -0.02  -0.01    -0.38  -0.32   0.08     0.01  -0.00  -0.00
     8   1     0.05  -0.03  -0.03    -0.02   0.01  -0.01    -0.15   0.19   0.85
     9   8    -0.01  -0.01   0.00     0.00   0.00   0.00     0.01  -0.02  -0.03
    10   1    -0.02  -0.01   0.01     0.01   0.01   0.00     0.20   0.22  -0.19
    11   1    -0.21   0.34   0.43     0.01  -0.02   0.00    -0.03   0.03   0.07
    12   8     0.03  -0.01  -0.03    -0.00  -0.00  -0.00     0.00  -0.00  -0.00
    13   1    -0.12   0.08   0.20     0.01   0.01  -0.00     0.01   0.03   0.01
    14   1     0.00   0.05   0.02     0.04  -0.12  -0.03     0.00   0.00   0.00
    15   8     0.00  -0.01  -0.00     0.00   0.03  -0.00     0.00  -0.00  -0.00
    16   1     0.00   0.05   0.01    -0.05  -0.07   0.01    -0.00   0.00   0.00
    17   1    -0.43   0.40  -0.08     0.00  -0.00   0.00    -0.04  -0.19   0.08
    18   8     0.04  -0.05  -0.00    -0.00   0.00   0.00     0.00  -0.00  -0.04
    19   1    -0.23   0.38  -0.05     0.00  -0.00  -0.00     0.04   0.17   0.07
                     31                     32                     33
                      A                      A                      A
 Frequencies --   1202.8994              1331.8126              1457.8133
 Red. masses --      1.0516                 1.0537                 1.0552
 Frc consts  --      0.8965                 1.1011                 1.3213
 IR Inten    --    129.3555               210.4490               185.1665
  Atom  AN      X      Y      Z        X      Y      Z        X      Y      Z
     1  80    -0.00  -0.00   0.00    -0.00   0.00   0.00    -0.00   0.00   0.00
     2   1     0.00  -0.06   0.00     0.12  -0.14   0.07     0.00   0.00   0.00
     3   8     0.01   0.01  -0.01    -0.01   0.00  -0.04    -0.00  -0.00  -0.00
     4   1    -0.05   0.01   0.02    -0.06   0.16   0.08     0.00   0.00  -0.00
     5   1     0.02  -0.00  -0.00    -0.00   0.00   0.00     0.01  -0.03   0.04
     6   8     0.00  -0.00  -0.00    -0.00   0.00   0.00     0.00  -0.01  -0.03
     7   1    -0.04   0.02   0.03     0.02  -0.01  -0.01     0.30  -0.04   0.89
     8   1     0.71  -0.19   0.36     0.01  -0.01   0.11    -0.01  -0.00  -0.00
     9   8    -0.01   0.04  -0.02    -0.00  -0.01  -0.04    -0.00  -0.00  -0.00
    10   1    -0.44  -0.30   0.10     0.32   0.06   0.90     0.01   0.01   0.00
    11   1    -0.02   0.04   0.04    -0.00   0.00   0.01     0.00  -0.00   0.01
    12   8     0.00   0.00  -0.00    -0.00   0.00  -0.00     0.00   0.00  -0.00
    13   1    -0.04  -0.04   0.01    -0.00   0.00   0.00    -0.00   0.00   0.01
    14   1     0.01  -0.00   0.00    -0.00   0.00  -0.00     0.22  -0.12   0.03
    15   8    -0.00   0.00   0.00     0.00  -0.00   0.00    -0.02   0.01  -0.04
    16   1    -0.00   0.00  -0.00    -0.00  -0.00   0.00    -0.11   0.13   0.12
    17   1     0.05  -0.08   0.02    -0.00  -0.03   0.01    -0.00   0.00   0.00
    18   8    -0.02   0.01  -0.01    -0.00  -0.00  -0.00     0.00  -0.00   0.00
    19   1     0.05  -0.01   0.04     0.01   0.01   0.01     0.00   0.00   0.00
                     34                     35                     36
                      A                      A                      A
 Frequencies --   1524.5108              1707.9060              1715.5630
 Red. masses --      1.1340                 1.0808                 1.0831
 Frc consts  --      1.5528                 1.8575                 1.8781
 IR Inten    --   3074.8962                 7.9539               845.7187
[...]
 7299510,0.12210437,0.00066218,0.00028689,-0.00000248,0.00458306,0.0074
 0306,0.00401472,0.09199744,-0.10812958,-0.15956597,-0.10127303,0.10249
 403,0.00056965,-0.00001471,0.00025632,0.02490788,-0.02176342,-0.031375
 65,0.11959424,-0.14238385,-0.32087363,-0.14484851,0.16368022,0.3480622
 9,-0.00930426,-0.01776699,0.00405520,-0.00007592,-0.00003130,0.0000069
 5,0.00019530,0.00009437,-0.00005042,-0.00008132,-0.00002243,0.00002504
 ,0.06321320,0.00072889,-0.00149295,-0.00201409,0.00002952,0.00010260,-
 0.00005605,0.00018852,-0.00068552,0.00011448,0.00005251,0.00013480,0.0
 0001582,0.07203514,0.48292301,0.00428404,0.00464880,0.00148956,-0.0000
 6591,-0.00003048,0.00010249,-0.00008569,0.00014721,-0.00021115,0.00006
 561,-0.00000790,0.00006260,-0.00046721,-0.05076107,0.01333121,-0.14736
 407,-0.00695601,0.02947771,0.00020541,-0.00012881,0.00018281,-0.001319
 55,0.00148576,-0.00015896,0.00015995,-0.00022247,-0.00019628,-0.064117
 48,-0.06624889,-0.00441027,0.34234081,-0.04313292,-0.03095680,0.016890
 00,-0.00014521,-0.00008721,0.00003103,0.00030715,0.00029559,-0.0001094
 6,-0.00014845,-0.00007323,0.00003375,-0.07940709,-0.46967829,0.0304778
 1,0.05276330,0.58204577,0.02246598,0.00843465,-0.02020879,0.00016863,0
 .00001671,-0.00012334,-0.00013861,-0.00009605,0.00021859,-0.00001268,-
 0.00003309,-0.00010292,-0.00143402,0.05637519,-0.01770984,0.03280957,-
 0.09223085,0.08426275,-0.01979767,-0.00782838,0.00120745,-0.00024897,0
 .00005261,-0.00010534,0.00120210,-0.00119426,0.00010055,-0.00018881,0.
 00014427,0.00018410,0.01768415,-0.00957851,0.00393183,-0.08120550,0.02
 607126,-0.02315286,0.08126190,0.00296287,0.01401922,-0.00497208,0.0001
 7848,-0.00000502,0.00006580,-0.00079602,0.00067288,-0.00005383,0.00014
 660,-0.00006182,-0.00011673,0.02230231,-0.01370060,0.01612308,-0.00891
 884,-0.07149355,0.00700187,0.00165008,0.08770504,0.00108365,-0.0083914
 7,0.00405495,-0.00013449,0.00002691,-0.00002020,0.00057719,-0.00057761
 ,-0.00001201,-0.00006893,0.00007507,0.00012699,0.00193125,-0.00494855,
 0.00324421,-0.02504134,0.02944326,-0.04936007,0.00240290,-0.00363896,0
 .07106837,-0.01475487,-0.01450621,0.00028118,-0.00028934,0.00144704,-0
 .00007278,-0.00619742,0.00428731,-0.00188554,-0.00001318,0.00069094,-0
 .00012176,0.00005031,-0.00009241,0.00001240,-0.00020016,0.00098540,0.0
 0036913,-0.00051843,0.00009620,0.00003560,0.11733455,-0.00887286,0.011
 90512,0.00117629,0.00042259,-0.00051273,0.00025152,-0.00104930,0.00269
 289,0.00037693,0.00032470,-0.00024161,-0.00019388,-0.00063306,-0.00061
 979,0.00029618,0.00482160,-0.00209247,0.00017803,-0.00283235,0.0024870
 6,-0.00170605,0.09053352,0.27211339,0.00571479,0.00559223,0.00143448,-
 0.00042907,0.00077141,0.00022550,-0.00125739,0.00080143,-0.00079878,-0
 .00022337,-0.00028586,0.00030981,-0.00018235,-0.00009826,0.00001862,0.
 00089757,-0.00083697,0.00041417,-0.00019932,0.00035210,-0.00020843,0.0
 1628571,0.03056620,0.04492959,-0.15721653,-0.02391249,0.03823142,-0.00
 044698,0.00263099,0.00337381,-0.01631193,0.03853206,-0.00730783,-0.001
 68352,0.00061642,-0.00408661,0.00130753,0.00161393,-0.00045194,0.00356
 009,0.00520157,-0.00140407,0.00425977,-0.00263102,0.00217440,-0.108112
 67,-0.08294724,-0.02470796,0.39069426,-0.01027662,-0.03085137,0.005401
 22,0.00220215,-0.00660776,-0.00352025,0.03667381,-0.03536239,0.0114374
 1,0.00185322,-0.00254453,0.00419024,0.00175249,0.00027588,-0.00054848,
 -0.00827791,0.00758791,-0.00033372,0.00166104,-0.00258679,0.00224573,-
 0.10068087,-0.27395444,-0.04861874,0.02386483,0.51999079,0.02875735,0.
 00593240,-0.02047203,0.00100443,-0.00124414,0.00018854,-0.00635005,0.0
 0964157,0.01158694,-0.00198315,0.00298558,-0.00310103,-0.00040186,0.00
 022427,0.00022266,-0.00167114,-0.00227454,0.00406669,-0.00021971,0.000
 62848,-0.00018008,-0.02033295,-0.02738097,-0.03229404,0.02313893,-0.00
 029769,0.07360817,-0.01888221,0.00649470,0.00050194,-0.00012738,0.0012
 9624,-0.00455361,-0.00963363,-0.01883411,0.00378639,0.00162395,0.00305
 803,0.00405425,-0.00023384,-0.00065697,0.00022776,0.00357096,-0.000497
 07,0.00040656,-0.00214675,0.00139204,-0.00110080,0.02264155,-0.0069215
 3,0.00417000,-0.11424005,0.06408160,-0.02231502,0.11905722,0.00738924,
 0.00733792,-0.00324537,-0.00529082,0.00946562,0.00457032,-0.00787043,-
 0.00380456,-0.01094177,-0.00232619,0.00083677,-0.00376104,-0.00010111,
 0.00108843,-0.00020119,-0.00301945,-0.00039322,0.00016780,0.00255203,-
 0.00152041,0.00119143,0.01208453,-0.01474720,0.00888219,0.04030486,-0.
 13613269,0.01631061,-0.04093612,0.13282395,0.00493641,-0.00303881,0.00
 147887,-0.00398160,0.00813659,0.00083432,0.00028042,-0.00762931,-0.034
 52687,0.00752764,-0.01083232,0.00660373,0.00009831,-0.00018970,0.00016
 916,-0.00000759,0.00038385,0.00017442,-0.00031096,0.00015891,-0.000160
 64,0.00566321,-0.00694979,0.00272394,-0.02936486,0.03611575,-0.0411028
 5,0.01530430,-0.01288477,0.06399051,0.00414060,-0.00363529,-0.00130764
 ,0.00008947,0.00023055,-0.00006511,-0.00015769,-0.00043251,0.00004449,
 0.00009924,0.00017224,0.00001875,0.00026764,-0.00007610,0.00004505,0.0
 0047759,0.00126078,-0.00007314,-0.00033386,-0.00027262,-0.00004872,0.0
 0072956,0.00769932,0.00111693,-0.00329152,-0.00311797,-0.00002570,-0.0
 0030648,0.00010688,0.00012740,0.38895534,-0.00576665,-0.00374946,0.000
 03092,0.00003709,-0.00005840,0.00004730,-0.00042908,0.00076533,-0.0000
 8421,-0.00000591,-0.00006596,-0.00007457,-0.00031515,-0.00001612,0.000
 01466,-0.00016763,-0.00108178,0.00021308,-0.00015994,0.00024267,-0.000
 12912,0.00360106,-0.00197412,-0.00133031,-0.00029506,0.00173338,0.0002
 9323,0.00108717,-0.00138307,0.00017695,0.16715557,0.12683947,-0.001223
 88,0.00145977,0.00274416,-0.00007472,0.00002962,0.00010319,0.00001186,
 0.00012256,-0.00016653,-0.00001416,-0.00004712,0.00006117,-0.00007200,
 0.00006589,0.00004892,-0.00034165,-0.00037398,-0.00008670,0.00043739,-
 0.00003649,0.00021814,0.00033550,-0.00247342,0.00188704,0.00083512,0.0
 0112317,-0.00126970,0.00014400,-0.00003944,0.00008973,-0.05104122,0.00
 105456,0.03360525,-0.00841909,-0.00149104,0.00140202,-0.00003704,-0.00
 022998,0.00012462,-0.00046144,0.00148166,-0.00024309,-0.00009726,-0.00
 023974,-0.00010346,-0.00066365,0.00001567,-0.00009975,0.00044656,-0.00
 270489,0.00039046,0.00002542,0.00204458,-0.00024838,0.00137670,-0.0032
 0924,-0.00110489,-0.00192551,0.00556856,0.00089076,0.00099071,-0.00240
 138,0.00066882,-0.36965793,-0.19068137,0.01997865,0.57714402,-0.001299
 40,-0.02180789,0.00066117,-0.00017761,-0.00008234,-0.00015441,0.001257
 85,-0.00145865,0.00033314,-0.00016171,0.00007447,0.00017071,-0.0006673
 0,0.00081645,-0.00030913,-0.00602349,-0.00313677,0.00017021,0.00364751
 ,-0.00292882,0.00170545,-0.00177572,-0.00478403,0.00041468,0.00950893,
 -0.00247331,-0.00179421,-0.00170451,0.00358096,-0.00139653,-0.14416028
 ,-0.12887174,-0.01360240,0.03516042,0.33649828,0.00060078,-0.00376427,
 -0.00787294,0.00008564,-0.00007308,-0.00016359,0.00015794,-0.00044467,
 0.00029667,0.00001142,0.00004315,-0.00005137,0.00001253,-0.00000547,0.
 00011026,0.00038859,-0.00025339,0.00118563,-0.00070685,0.00050016,-0.0
 0099986,-0.00044623,0.00079869,-0.00146359,0.00203316,-0.00251205,0.00
 143418,-0.00010117,0.00087153,-0.00039548,0.05459593,0.00869977,-0.030
 61074,-0.20847220,0.17023222,0.22388411,0.00244238,0.00233519,-0.00016
 051,-0.00001701,0.00007852,-0.00000607,0.00014885,-0.00038789,0.000011
 49,0.00001281,0.00006296,0.00003772,-0.00004842,0.00007593,0.00006304,
 -0.00179660,0.00031424,0.00000531,0.00099118,-0.00164832,0.00030664,-0
 .00026814,0.00003884,0.00026487,0.00098264,-0.00099445,-0.00036193,-0.
 00026155,0.00064327,-0.00003469,-0.02317586,0.03025501,0.03362634,-0.1
 8848942,0.10658397,0.14762632,0.21222195,0.00231633,-0.00061798,-0.003
 10153,0.00003781,-0.00002751,-0.00004793,0.00005230,-0.00016396,0.0001
 1039,0.00001148,0.00000763,-0.00000551,-0.00007167,-0.00002305,0.00010
 003,-0.00046083,0.00009428,0.00061287,-0.00066819,-0.00042638,-0.00052
 636,-0.00025161,-0.00040957,-0.00017759,0.00148532,-0.00102128,0.00010
 504,0.00004159,0.00040974,-0.00029614,-0.01937922,0.01129834,0.0108366
 1,0.15613861,-0.18060765,-0.17347234,-0.13772800,0.17087776,0.00004437
 ,0.00010420,0.00108116,-0.00002909,0.00001653,0.00005847,-0.00003510,0
 .00010664,-0.00011221,0.00000309,-0.00001342,0.00002717,0.00004686,0.0
 0003163,0.00010828,-0.00018999,0.00029992,-0.00060544,0.00033311,-0.00
 067901,0.00057450,0.00011314,-0.00011619,0.00003114,-0.00073072,0.0005
 7115,0.00018560,0.00003193,-0.00015550,0.00019483,-0.00145794,-0.01037
 989,-0.00018830,0.18377060,-0.15570279,-0.18818484,-0.18121560,0.16545
 964,0.18662122,-0.00061719,0.00023140,-0.00093850,-0.00001330,0.000009
 99,-0.00002283,0.00009679,-0.00010062,0.00004409,-0.00002997,0.0000171
 3,-0.00000800,-0.00078554,0.00056383,-0.00094558,-0.00401868,0.0043279
 0,0.00029202,0.00484506,-0.01151167,-0.00775952,-0.00006573,-0.0001040
 7,-0.00004212,0.00021208,-0.00008320,0.00013053,-0.00015267,0.00020962
 ,-0.00006047,-0.00007166,-0.00000859,-0.00003710,0.00012801,-0.0000049
 1,0.00024768,0.00000590,0.00001950,-0.00012671,0.12775547,0.00032601,0
 .00059089,0.00010155,0.00001601,0.00002776,-0.00000349,-0.00002333,-0.
 00009456,0.00000461,0.00003185,0.00003399,0.00000373,0.00113447,-0.000
 50984,0.00100038,0.00495550,-0.00412924,0.00043014,-0.00308163,0.00879
 112,0.00664274,-0.00000471,0.00015196,-0.00001077,0.00002255,-0.000175
 72,-0.00001857,-0.00004398,0.00010688,-0.00000584,-0.00008747,0.000044
 03,-0.00005384,0.00025203,-0.00035708,0.00024928,-0.00013621,0.0000772
 2,-0.00019833,0.04598010,0.05605121,-0.00096711,-0.00058815,0.00060926
 ,-0.00002688,-0.00000045,0.00001509,0.00008166,-0.00007364,-0.00003656
 ,-0.00000155,0.00000476,0.00003881,-0.00060355,0.00010946,-0.00021580,
 0.00389293,-0.00072954,0.00151817,-0.00642428,-0.00043676,-0.00329570,
 -0.00002993,-0.00020188,0.00002875,0.00031051,0.00015284,-0.00012332,-
 0.00014399,0.00017355,0.00001092,-0.00005073,-0.00001849,0.00011370,0.
 00014460,0.00026346,-0.00025654,-0.00012747,-0.00013900,0.00006753,0.1
 5517914,0.13334261,0.38583044,0.00765449,0.00479045,-0.00217514,0.0001
 2651,-0.00004872,0.00006238,-0.00062968,0.00069822,-0.00007745,0.00009
 382,-0.00009710,-0.00008998,-0.00684500,0.00103413,-0.00182721,-0.0497
 9760,0.03362555,-0.02791104,-0.00247256,-0.00364263,0.01345275,0.00026
 654,0.00146368,0.00016497,-0.00206126,-0.00098081,0.00018402,0.0011912
 9,-0.00144560,0.00019625,0.00028439,0.00008766,-0.00022846,-0.00052496
 ,-0.00153836,0.00018397,-0.00013693,0.00041800,0.00012770,-0.13954143,
 -0.03992494,-0.12917275,0.47720643,-0.00470962,-0.00681047,0.00204699,
 -0.00011027,-0.00003326,-0.00002700,0.00043168,-0.00023113,0.00001345,
 -0.00010663,-0.00000641,0.00005863,0.00035561,0.00151006,-0.00067865,0
 .03830798,-0.00657673,0.01720617,-0.01784090,-0.02078939,-0.01504902,-
 0.00005890,-0.00144129,-0.00014550,0.00126669,0.00144557,-0.00017664,-
 0.00065278,0.00065078,-0.00007596,0.00024259,-0.00012111,0.00009027,-0
 .00133778,0.00203559,-0.00056347,0.00132498,-0.00000768,0.00073949,-0.
 05208169,-0.06349950,-0.11823283,-0.05544919,0.13366365,0.00229712,0.0
 0346645,-0.00254661,0.00006887,-0.00000793,-0.00001314,-0.00024987,0.0
 0025289,0.00004718,0.00002014,-0.00002773,-0.00007818,-0.00258375,0.00
 087663,-0.00123718,-0.02986070,0.01628728,0.00193230,0.01901294,-0.012
 90892,-0.03756304,0.00003331,0.00074823,0.00000251,-0.00091686,-0.0008
 0930,0.00025501,0.00046973,-0.00053999,0.00002143,0.00006032,0.0000877
 8,-0.00022382,-0.00007171,-0.00098343,0.00081386,0.00017864,0.00043788
 ,-0.00038291,-0.18445190,-0.13043210,-0.35746401,-0.02414634,0.1893300
 5,0.63191655,-0.00051398,0.00023341,0.00021953,-0.00001904,0.00001597,
 -0.00000750,0.00009166,-0.00012775,0.00001424,-0.00001338,0.00002128,0
 .00001234,-0.00053254,0.00021687,-0.00022836,-0.00053531,0.00154589,-0
 .00279154,-0.00375139,-0.00129849,0.01228353,-0.00006750,-0.00010226,0
 .00000559,0.00027190,-0.00003579,0.00000062,-0.00017759,0.00024421,-0.
 00003859,-0.00014516,-0.00002167,0.00005554,0.00044339,0.00002785,-0.0
 0012894,-0.00040498,-0.00024083,-0.00006298,0.01223079,-0.00941570,-0.
 02211465,-0.28458075,0.09039448,0.22025388,0.27763216,0.00069199,0.001
 16618,0.00026382,0.00002709,0.00002480,0.00000315,-0.00007779,-0.00002
 427,-0.00000070,0.00003367,0.00002051,-0.00000498,0.00108890,-0.000339
 67,-0.00016063,-0.00036849,-0.00125875,0.00194665,0.00642937,0.0005225
 4,-0.00696228,0.00000208,0.00032082,0.00003945,-0.00018444,-0.00032955
 ,-0.00005629,0.00007553,-0.00003629,0.00000999,-0.00011354,0.00002719,
 -0.00000914,0.00039947,-0.00052799,0.00002631,-0.00053513,0.00003476,-
 0.00014678,0.01250703,0.00295012,-0.01369093,0.06148470,-0.04031554,-0
 .06552700,-0.08147373,0.03788286,0.00054669,0.00049368,0.00017449,-0.0
 0000045,-0.00000205,0.00002635,-0.00005074,0.00005216,-0.00004131,0.00
 001624,-0.00000580,0.00001174,-0.00042048,0.00025245,0.00045871,-0.005
 67213,0.00275778,-0.00552948,0.00347265,-0.00188972,0.01246930,0.00001
 864,0.00012158,0.00005552,-0.00018415,-0.00008444,-0.00002355,0.000099
 65,-0.00011074,0.00003704,-0.00000492,-0.00002225,0.00004548,0.0000136
 5,-0.00005615,-0.00024365,-0.00013624,-0.00011131,0.00022503,0.0384957
 4,-0.01104663,-0.02684226,0.17126738,-0.07458855,-0.23547398,-0.207459
 95,0.08428564,0.25465348,0.00044821,-0.00097946,0.00055891,0.00007647,
 0.00016757,-0.00007478,-0.00034611,-0.00009956,0.00004888,0.00010972,0
 .00016816,0.00000241,0.00002414,-0.00004570,0.00002663,-0.00001529,0.0
 0018060,-0.00008432,-0.00001425,-0.00010200,0.00006052,0.00138356,0.00
 114428,0.00224016,-0.00099233,-0.00030973,-0.00073535,0.00040744,-0.00
 035163,-0.00011133,-0.00034788,-0.00207548,0.00401685,-0.00095978,0.00
 119807,-0.00154234,-0.00016388,-0.00008106,0.00019539,-0.00004886,-0.0
 0005286,0.00001960,0.00005822,0.00011794,-0.00006015,-0.00003593,-0.00
 003932,0.00002014,0.07381411,-0.00081130,0.00048400,0.00046522,-0.0000
 5964,-0.00018573,0.00016471,0.00023316,0.00044597,-0.00021670,-0.00005
 814,-0.00031146,0.00005306,-0.00005286,-0.00004372,0.00002248,0.000320
 69,-0.00016982,0.00004277,-0.00028050,0.00023791,-0.00013252,-0.002733
 38,-0.00026804,0.00887409,0.00042939,-0.00182955,-0.00284225,-0.000291
 07,-0.00039573,0.00027945,0.00015835,0.00117471,-0.00067353,0.00056689
 ,-0.00065775,0.00022849,0.00005609,0.00009899,-0.00022646,-0.00001964,
 0.00003320,-0.00000961,0.00013824,-0.00016557,0.00005566,-0.00000653,0
 .00005348,0.00001373,0.07313606,0.10096063,0.00045777,0.00024029,0.000
 42621,0.00000206,0.00013420,0.00003821,0.00004416,-0.00024264,-0.00011
 499,0.00002854,-0.00000274,0.00011561,0.00001182,0.00003340,0.00001467
 ,-0.00022829,-0.00000461,-0.00008418,0.00017876,-0.00010018,0.00013671
 ,0.00205029,0.00351955,0.00306133,-0.00175794,-0.00334267,-0.00173924,
 -0.00014038,0.00025060,0.00019930,0.00191892,0.00065353,0.00010132,-0.
 00122231,-0.00050832,-0.00030903,0.00014128,0.00000836,0.00005254,-0.0
 0001657,-0.00001322,0.00005056,-0.00008464,0.00005470,-0.00010556,0.00
 001982,0.00000467,0.00002184,-0.10411145,-0.16421271,0.39393658,0.0002
 0763,0.00478227,0.00002745,-0.00015705,-0.00069583,0.00013402,0.001687
 90,-0.00030558,0.00018316,-0.00021270,-0.00046440,0.00002821,-0.000067
 22,0.00019825,-0.00008219,-0.00050005,-0.00069416,0.00004548,0.0005254
 4,0.00005509,0.00015453,-0.01301922,0.00001380,-0.00164309,0.00482284,
 -0.01365051,-0.00023055,-0.00371021,0.00054504,-0.00080215,0.00448583,
 -0.00089041,-0.00344083,-0.00948696,-0.00086147,0.00387494,-0.00127953
 ,-0.00155925,-0.00070962,0.00008702,0.00007431,0.00005529,-0.00037653,
 -0.00013465,-0.00009536,0.00014739,0.00008487,-0.00001253,-0.08173943,
 -0.06708089,0.08489457,0.31562436,0.00837452,-0.00477202,-0.00199283,0
 .00007408,0.00028198,-0.00038998,0.00154511,-0.00280617,0.00065622,0.0
 0006001,0.00039970,0.00022266,0.00035247,0.00028002,-0.00013390,-0.002
 10330,0.00124604,-0.00017094,0.00148299,-0.00136814,0.00085180,0.01111
 309,0.00766853,0.00153167,-0.01630055,-0.03293263,-0.00181808,-0.00586
 229,0.00264020,-0.00134396,-0.00631231,-0.00590319,0.00221215,0.000349
 25,0.00535794,-0.00062314,-0.00055077,0.00021356,0.00041197,0.00005515
 ,-0.00011956,0.00008712,-0.00071743,0.00083562,-0.00036060,0.00002504,
 -0.00021765,-0.00006758,-0.08083366,-0.10914803,0.14155339,0.18262129,
 0.20816143,0.00037716,-0.00139191,-0.00192969,0.00012854,-0.00027738,-
 0.00026273,0.00028128,-0.00031419,0.00053247,0.00000659,0.00015284,-0.
 00015657,0.00004266,0.00000014,-0.00005679,-0.00004361,0.00025601,0.00
 013042,-0.00005912,-0.00005939,-0.00008484,-0.00036280,0.00520329,-0.0
 2186645,-0.00075426,-0.00451819,0.00926595,-0.00104713,-0.00024686,-0.
 00069004,-0.00298310,0.00086343,-0.00862143,0.00312219,0.00033068,0.00
 414916,-0.00060963,0.00026013,0.00003877,0.00004142,0.00001571,-0.0000
 6730,0.00002153,0.00002293,0.00012256,-0.00003040,-0.00003294,-0.00005
 571,0.13623031,0.17391157,-0.36178658,0.09160882,-0.07533731,0.6480551
 8,0.00011450,-0.00080256,-0.00054649,0.00013143,0.00017384,-0.00006964
 ,-0.00032623,-0.00006742,0.00003923,0.00008349,0.00012506,0.00002000,0
 .00001291,-0.00005462,0.00000775,0.00010892,0.00014614,0.00004911,-0.0
 0011684,-0.00000665,-0.00006077,-0.00027612,0.00020958,-0.00107105,0.0
 0017119,0.00075016,0.00052077,0.00038923,-0.00033694,-0.00009052,-0.00
 204161,-0.00140663,-0.00296723,0.00016823,0.00099016,0.00157884,-0.000
 76341,-0.00008028,-0.00010844,-0.00001609,-0.00002198,-0.00002086,0.00
 008500,0.00004048,0.00004169,-0.00003975,-0.00003225,-0.00000918,0.008
 34189,-0.00364493,0.01781360,-0.21703950,-0.09337268,-0.22597044,0.211
 01274,-0.00078710,0.00046080,-0.00027838,-0.00001520,-0.00058951,0.000
 03696,0.00060428,0.00041725,0.00023617,-0.00009670,-0.00025726,-0.0001
 1014,-0.00004680,-0.00002171,0.00000082,0.00024130,-0.00014176,0.00006
 854,-0.00022647,0.00020247,-0.00012046,-0.00473736,0.00370551,-0.00632
 146,0.00079328,-0.00423151,0.00178220,-0.00112647,-0.00052808,-0.00061
 837,0.00056102,0.00109983,0.00031473,0.00031827,-0.00066967,0.00006229
 ,0.00021178,0.00019275,-0.00012281,-0.00000727,0.00002711,-0.00001254,
 0.00010415,-0.00014320,0.00005417,-0.00000225,0.00004644,0.00000821,0.
 00885778,0.00968651,0.02197439,-0.10203777,-0.06981763,-0.09883856,0.0
 9739153,0.06056168,-0.00052399,0.00009568,0.00067648,-0.00006878,0.000
 03871,0.00020951,-0.00004182,0.00031388,-0.00029995,-0.00003158,-0.000
 13189,0.00006309,-0.00001498,-0.00002617,0.00004941,0.00017275,-0.0000
 4734,-0.00009238,-0.00008324,0.00006167,-0.00000830,-0.00194613,-0.004
 21432,0.00150888,0.00156983,0.00334804,-0.00050792,0.00020559,-0.00029
 136,0.00034766,-0.00086957,-0.00009636,0.00214913,0.00105944,0.0002256
 7,-0.00132224,0.00039049,-0.00005325,0.00020745,-0.00002132,-0.0000079
 7,0.00001827,0.00005205,-0.00002507,-0.00002296,-0.00000218,0.00001197
 ,0.00003096,-0.03670007,-0.01579745,-0.03401532,-0.17399015,-0.0652886
 7,-0.26671638,0.21084364,0.08188424,0.29772462\\-0.00242684,0.01055036
 ,-0.00161458,-0.00183204,-0.00166151,0.01122452,0.01183558,0.00463604,
 -0.00097242,-0.00460727,-0.00548028,-0.00925785,-0.00307507,-0.0068633
 4,0.00834329,-0.00646785,-0.00487606,-0.01389288,0.00705227,0.00705831
 ,0.00717559,-0.00207787,-0.00119608,-0.00788665,0.01186871,0.00066453,
 0.01574091,-0.00658442,0.00142958,-0.00842672,0.00715687,-0.00088137,-
 0.00830576,0.00702197,-0.00560620,0.00805935,-0.01316831,0.00106271,0.
 00105495,0.00325106,0.00332545,-0.01065071,-0.01026791,-0.01417276,0.0
 0102697,0.00007886,0.00918463,0.00761805,-0.00455319,0.00142816,-0.011
 26286,0.00601129,0.00117366,0.00048309,0.00078415,0.00022416,0.0115437
 2\\\@


 THERE'S NOTHING SO GREAT AS THE GREAT OUTDOORS.

                                       -- ZIGGY
 Job cpu time:       0 days  0 hours 50 minutes 19.1 seconds.
 Elapsed time:       0 days  0 hours  1 minutes 48.9 seconds.
 File lengths (MBytes):  RWF=   2793 Int=      0 D2E=      0 Chk=      3 Scr=      1
 Normal termination of Gaussian 16 at Wed May 11 21:58:26 2022.
