 Entering Gaussian System, Link 0=g16
 Initial command:
 /cm/shared/apps/gaussian/intel/EM64T/SSE4_2-enabled/binary//g16/l1.exe "/scratch/florez/25750/Gau-10804.inp" -scrdir="/scratch/florez/25750/"
 Entering Link 1 = /cm/shared/apps/gaussian/intel/EM64T/SSE4_2-enabled/binary//g16/l1.exe PID=     10807.
  
 Copyright (c) 1988,1990,1992,1993,1995,1998,2003,2009,2016,
            Gaussian, Inc.  All Rights Reserved.
  
 This is part of the Gaussian(R) 16 program.  It is based on
 the Gaussian(R) 09 system (copyright 2009, Gaussian, Inc.),
 the Gaussian(R) 03 system (copyright 2003, Gaussian, Inc.),
 the Gaussian(R) 98 system (copyright 1998, Gaussian, Inc.),
 the Gaussian(R) 94 system (copyright 1995, Gaussian, Inc.),
 the Gaussian 92(TM) system (copyright 1992, Gaussian, Inc.),
 the Gaussian 90(TM) system (copyright 1990, Gaussian, Inc.),
 the Gaussian 88(TM) system (copyright 1988, Gaussian, Inc.),
 the Gaussian 86(TM) system (copyright 1986, Carnegie Mellon
 University), and the Gaussian 82(TM) system (copyright 1983,
 Carnegie Mellon University). Gaussian is a federally registered
 trademark of Gaussian, Inc.
  
 This software contains proprietary and confidential information,
 including trade secrets, belonging to Gaussian, Inc.
  
 This software is provided under written license and may be
 used, copied, transmitted, or stored only in accord with that
 written license.
  
 The following legend is applicable only to US Government
 contracts under FAR:
  
                    RESTRICTED RIGHTS LEGEND
  
 Use, reproduction and disclosure by the US Government is
 subject to restrictions as set forth in subparagraphs (a)
 and (c) of the Commercial Computer Software - Restricted
 Rights clause in FAR 52.227-19.
  
 Gaussian, Inc.
 340 Quinnipiac St., Bldg. 40, Wallingford CT 06492
  
  
 ---------------------------------------------------------------
 Warning -- This program may not be used in any manner that
 competes with the business of Gaussian, Inc. or will provide
 assistance to any competitor of Gaussian, Inc.  The licensee
 of this program is prohibited from giving any competitor of
 Gaussian, Inc. access to this program.  By using this program,
 the user acknowledges that Gaussian, Inc. is engaged in the
 business of creating and licensing software in the field of
 computational chemistry and represents and warrants to the
 licensee that it is not a competitor of Gaussian, Inc. and that
 it will not use this program in any manner prohibited above.
 ---------------------------------------------------------------
  

 Cite this work as:
 Gaussian 16, Revision A.03,
 M. J. Frisch, G. W. Trucks, H. B. Schlegel, G. E. Scuseria, 
 M. A. Robb, J. R. Cheeseman, G. Scalmani, V. Barone, 
 G. A. Petersson, H. Nakatsuji, X. Li, M. Caricato, A. V. Marenich, 
 J. Bloino, B. G. Janesko, R. Gomperts, B. Mennucci, H. P. Hratchian, 
 J. V. Ortiz, A. F. Izmaylov, J. L. Sonnenberg, D. Williams-Young, 
 F. Ding, F. Lipparini, F. Egidi, J. Goings, B. Peng, A. Petrone, 
 T. Henderson, D. Ranasinghe, V. G. Zakrzewski, J. Gao, N. Rega, 
 G. Zheng, W. Liang, M. Hada, M. Ehara, K. Toyota, R. Fukuda, 
 J. Hasegawa, M. Ishida, T. Nakajima, Y. Honda, O. Kitao, H. Nakai, 
 T. Vreven, K. Throssell, J. A. Montgomery, Jr., J. E. Peralta, 
 F. Ogliaro, M. J. Bearpark, J. J. Heyd, E. N. Brothers, K. N. Kudin, 
 V. N. Staroverov, T. A. Keith, R. Kobayashi, J. Normand, 
 K. Raghavachari, A. P. Rendell, J. C. Burant, S. S. Iyengar, 
 J. Tomasi, M. Cossi, J. M. Millam, M. Klene, C. Adamo, R. Cammi, 
 J. W. Ochterski, R. L. Martin, K. Morokuma, O. Farkas, 
 J. B. Foresman, and D. J. Fox, Gaussian, Inc., Wallingford CT, 2016.
 
 ******************************************
 Gaussian 16:  ES64L-G16RevA.03 25-Dec-2016
                11-May-2022 
 ******************************************
 %chk=w6s2.chk
 %nproc=28
 Will use up to   28 processors via shared memory.
 %mem=500gb
 ------------------------
 #p MP2(full) SDDAll freq
 ------------------------
 1/10=4,30=1,38=1/1,3;
 2/12=2,17=6,18=5,40=1/2;
 3/5=17,6=6,11=9,25=1,30=1,71=2,140=1/1,2,3;
 4//1;
 5/5=2,38=5,98=1/2;
 8/6=3,8=1,10=90,19=11/1;
 9/15=3,16=-3/6;
 11/6=1,8=1,15=11,17=11,24=-1,27=1,28=-2,29=300,32=6,42=3/1,2,10;
 10/6=2,21=1/2;
 8/6=4,8=1,10=90,19=11/11,4;
 10/5=1,20=4/2;
 11/12=2,14=11,16=1,28=-2,42=3/2,10,12;
 6/7=2,8=2,9=2,10=2/1;
 7/8=1,10=1,12=2,25=1,44=2/1,2,3,16;
 1/10=4,30=1/3;
 99//99;
 Leave Link    1 at Wed May 11 21:38:35 2022, MaxMem= 67108864000 cpu:               1.5 elap:               0.1
 (Enter /cm/shared/apps/gaussian/intel/EM64T/SSE4_2-enabled/binary//g16/l101.exe)
 ----------------------------------------------------------------------
 file 'w6s2.log' Now we use Def2-QZVPPD, but it was opt at: ---'ZORA-SR
 +SO PBE QZ4P'---
 ----------------------------------------------------------------------
 Symbolic Z-matrix:
 Charge =  2 Multiplicity = 1
 Hg(Fragment=1)       -0.56452   0.1234    0.22625 
 H(Fragment=2)         6.07124   0.66572  -0.05629 
 O(Fragment=2)         5.32553   0.35858  -0.60323 
 H(Fragment=2)         5.70047  -0.00214  -1.42658 
 H(Fragment=2)         1.12316   1.54893   1.33015 
 O(Fragment=2)         1.14704   1.09125   0.4694 
 H(Fragment=2)         2.48557   1.46113  -0.27118 
 H(Fragment=2)        -2.64181  -3.84208   0.71888 
 O(Fragment=2)        -2.54158  -3.00696   1.2076 
 H(Fragment=2)        -3.10068  -3.08495   1.99959 
 H(Fragment=2)        -3.11936  -0.33719  -0.34286 
 O(Fragment=2)        -2.25715  -0.90049  -0.13529 
 H(Fragment=2)        -2.43273  -1.75587   0.4489 
 H(Fragment=2)         3.26487   2.41625  -1.37189 
 O(Fragment=2)         3.37983   1.8351   -0.59973 
 H(Fragment=2)         4.26192   1.15381  -0.65857 
 H(Fragment=2)        -4.95803   0.75634  -0.14319 
 O(Fragment=2)        -4.24111   0.51386  -0.75499 
 H(Fragment=2)        -4.66233   0.34466  -1.6156 
 
 ITRead=  0  0  0  0  0  0  0  0  0  0  0  0  0  0  0  0  0  0  0
 MicOpt= -1 -1 -1 -1 -1 -1 -1 -1 -1 -1 -1 -1 -1 -1 -1 -1 -1 -1 -1
 NAtoms=     19 NQM=       19 NQMF=       0 NMMI=      0 NMMIF=      0
                NMic=       0 NMicF=      0.
                    Isotopes and Nuclear Properties:
 (Nuclear quadrupole moments (NQMom) in fm**2, nuclear magnetic moments (NMagM)
  in nuclear magnetons)

  Atom         1           2           3           4           5           6           7           8           9          10
 IAtWgt=         202           1          16           1           1          16           1           1          16           1
 AtmWgt= 201.9706000   1.0078250  15.9949146   1.0078250   1.0078250  15.9949146   1.0078250   1.0078250  15.9949146   1.0078250
 NucSpn=           0           1           0           1           1           0           1           1           0           1
 AtZEff=  -0.0000000  -0.0000000  -0.0000000  -0.0000000  -0.0000000  -0.0000000  -0.0000000  -0.0000000  -0.0000000  -0.0000000
 NQMom=    0.0000000   0.0000000   0.0000000   0.0000000   0.0000000   0.0000000   0.0000000   0.0000000   0.0000000   0.0000000
 NMagM=    0.0000000   2.7928460   0.0000000   2.7928460   2.7928460   0.0000000   2.7928460   2.7928460   0.0000000   2.7928460
 AtZNuc=  80.0000000   1.0000000   8.0000000   1.0000000   1.0000000   8.0000000   1.0000000   1.0000000   8.0000000   1.0000000

  Atom        11          12          13          14          15          16          17          18          19
 IAtWgt=           1          16           1           1          16           1           1          16           1
 AtmWgt=   1.0078250  15.9949146   1.0078250   1.0078250  15.9949146   1.0078250   1.0078250  15.9949146   1.0078250
 NucSpn=           1           0           1           1           0           1           1           0           1
 AtZEff=  -0.0000000  -0.0000000  -0.0000000  -0.0000000  -0.0000000  -0.0000000  -0.0000000  -0.0000000  -0.0000000
 NQMom=    0.0000000   0.0000000   0.0000000   0.0000000   0.0000000   0.0000000   0.0000000   0.0000000   0.0000000
 NMagM=    2.7928460   0.0000000   2.7928460   2.7928460   0.0000000   2.7928460   2.7928460   0.0000000   2.7928460
 AtZNuc=   1.0000000   8.0000000   1.0000000   1.0000000   8.0000000   1.0000000   1.0000000   8.0000000   1.0000000
 Leave Link  101 at Wed May 11 21:38:35 2022, MaxMem= 67108864000 cpu:               3.0 elap:               0.1
 (Enter /cm/shared/apps/gaussian/intel/EM64T/SSE4_2-enabled/binary//g16/l103.exe)

 GradGradGradGradGradGradGradGradGradGradGradGradGradGradGradGradGradGrad
 Berny optimization.
 Initialization pass.
 Trust Radius=3.00D-01 FncErr=1.00D-07 GrdErr=1.00D-07 EigMax=2.50D+02 EigMin=1.00D-04
 Number of steps in this run=      2 maximum allowed number of steps=      2.
 GradGradGradGradGradGradGradGradGradGradGradGradGradGradGradGradGradGrad

 Leave Link  103 at Wed May 11 21:38:35 2022, MaxMem= 67108864000 cpu:               0.6 elap:               0.0
 (Enter /cm/shared/apps/gaussian/intel/EM64T/SSE4_2-enabled/binary//g16/l202.exe)
                          Input orientation:                          
 ---------------------------------------------------------------------
 Center     Atomic      Atomic             Coordinates (Angstroms)
 Number     Number       Type             X           Y           Z
 ---------------------------------------------------------------------
      1         80           0       -0.564521    0.123400    0.226252
      2          1           0        6.071244    0.665715   -0.056289
      3          8           0        5.325531    0.358580   -0.603232
      4          1           0        5.700467   -0.002141   -1.426580
      5          1           0        1.123155    1.548926    1.330151
      6          8           0        1.147037    1.091248    0.469399
      7          1           0        2.485573    1.461128   -0.271183
      8          1           0       -2.641809   -3.842081    0.718877
      9          8           0       -2.541583   -3.006955    1.207602
     10          1           0       -3.100678   -3.084950    1.999591
     11          1           0       -3.119361   -0.337192   -0.342859
     12          8           0       -2.257151   -0.900486   -0.135293
     13          1           0       -2.432730   -1.755865    0.448899
     14          1           0        3.264867    2.416248   -1.371894
     15          8           0        3.379825    1.835096   -0.599732
     16          1           0        4.261919    1.153813   -0.658572
     17          1           0       -4.958028    0.756338   -0.143191
     18          8           0       -4.241111    0.513862   -0.754990
     19          1           0       -4.662326    0.344658   -1.615596
 ---------------------------------------------------------------------
                    Distance matrix (angstroms):
                    1          2          3          4          5
     1  Hg   0.000000
     2  H    6.663881   0.000000
     3  O    5.952820   0.974457   0.000000
     4  H    6.480562   1.568823   0.973960   0.000000
     5  H    2.469609   5.214006   4.776490   5.563916   0.000000
     6  O    1.981232   4.970437   4.375746   5.052124   0.975158
     7  H    3.367496   3.679116   3.064511   3.716402   2.104320
     8  H    4.503648   9.840650   9.103408   9.430890   6.603905
     9  O    3.830267   9.448106   8.746281   9.159651   5.848194
    10  H    4.457615  10.120192   9.467501   9.934914   6.305690
    11  H    2.657676   9.249604   8.477505   8.892473   4.935114
    12  O    2.010983   8.474750   7.700732   8.111605   4.424208
    13  H    2.659213   8.856457   8.109776   8.528884   4.933819
    14  H    4.740826   3.559626   3.011839   3.432746   3.555309
    15  O    4.378358   2.984379   2.442516   3.073190   2.983103
    16  H    5.013899   1.968411   1.329183   1.998871   3.736706
    17  H    4.454212  11.029987  10.301526  10.762244   6.307117
    18  O    3.825260  10.337113   9.569106   9.977588   5.847608
    19  H    4.498151  10.850993  10.039042  10.370317   6.602990
                    6          7          8          9         10
     6  O    0.000000
     7  H    1.573833   0.000000
     8  H    6.225378   7.442734   0.000000
     9  O    5.562925   6.886426   0.972796   0.000000
    10  H    6.150220   7.551784   1.556932   0.972583   0.000000
    11  H    4.571909   5.886797   3.693181   3.140922   3.610761
    12  O    3.990132   5.299917   3.087159   2.514255   3.168777
    13  H    4.573970   5.920918   2.113977   1.467210   2.148783
    14  H    3.103416   1.652609   8.855892   8.353430   9.063678
    15  O    2.584897   1.023466   8.380283   7.859707   8.541677
    16  H    3.313416   1.843887   8.632368   8.190375   8.901729
    17  H    6.144856   7.477988   5.220487   4.671854   4.774595
    18  O    5.555596   6.810261   4.868705   4.374507   4.673302
    19  H    6.217178   7.358425   5.202022   4.868399   5.222120
                   11         12         13         14         15
    11  H    0.000000
    12  O    1.050614   0.000000
    13  H    1.763796   1.050610   0.000000
    14  H    7.028422   6.559161   7.292765   0.000000
    15  O    6.857422   6.282882   6.912338   0.973235   0.000000
    16  H    7.536980   6.855089   7.383159   1.759739   1.116109
    17  H    2.148574   3.168575   3.610937   8.478267   8.419735
    18  O    1.467129   2.514061   3.141855   7.767841   7.736177
    19  H    2.113178   3.086511   3.693973   8.197028   8.241940
                   16         17         18         19
    16  H    0.000000
    17  H    9.242891   0.000000
    18  O    8.527623   0.973171   0.000000
    19  H    9.011813   1.557208   0.972982   0.000000
 Stoichiometry    H12HgO6(2+)
 Framework group  C1[X(H12HgO6)]
 Deg. of freedom    51
 Full point group                 C1      NOp   1
 Largest Abelian subgroup         C1      NOp   1
 Largest concise Abelian subgroup C1      NOp   1
                         Standard orientation:                         
 ---------------------------------------------------------------------
 Center     Atomic      Atomic             Coordinates (Angstroms)
 Number     Number       Type             X           Y           Z
 ---------------------------------------------------------------------
      1         80           0       -0.285582   -0.095894   -0.148237
      2          1           0        6.262089    1.133932    0.002921
      3          8           0        5.511625    1.020901    0.614145
      4          1           0        5.848696    1.168609    1.515901
      5          1           0        1.614144   -0.542963   -1.661558
      6          8           0        1.591539   -0.416642   -0.694880
      7          1           0        3.038312   -0.635029   -0.115133
      8          1           0       -3.356466    3.072628    0.753417
      9          8           0       -3.084646    2.514242    0.004650
     10          1           0       -3.710222    2.700419   -0.716398
     11          1           0       -2.814153   -0.572839    0.516663
     12          8           0       -2.148968    0.240280    0.529136
     13          1           0       -2.590023    1.160447    0.279046
     14          1           0        4.130023   -1.655254    0.590859
     15          8           0        4.023678   -0.838693    0.072106
     16          1           0        4.700034   -0.004361    0.375636
     17          1           0       -4.315432   -1.991888   -0.073958
     18          8           0       -3.636728   -1.785329    0.592193
     19          1           0       -4.012471   -2.040263    1.452729
 ---------------------------------------------------------------------
 Rotational constants (GHZ):           1.9771126           0.3423637           0.3049537
 Leave Link  202 at Wed May 11 21:38:35 2022, MaxMem= 67108864000 cpu:               1.4 elap:               0.1
 (Enter /cm/shared/apps/gaussian/intel/EM64T/SSE4_2-enabled/binary//g16/l301.exe)
 Standard basis: SDDAll (6D, 10F)
 Ernie: Thresh=  0.10000D-02 Tol=  0.10000D-05 Strict=F.
 There are   129 symmetry adapted cartesian basis functions of A   symmetry.
 There are   129 symmetry adapted basis functions of A   symmetry.
   129 basis functions,   227 primitive gaussians,   129 cartesian basis functions
    33 alpha electrons       33 beta electrons
       nuclear repulsion energy       308.6906860810 Hartrees.
 IExCor=    0 DFT=F Ex=HF Corr=None ExCW=0 ScaHFX=  1.000000
 ScaDFX=  1.000000  1.000000  1.000000  1.000000 ScalE2=  1.000000  1.000000
 IRadAn=      5 IRanWt=     -1 IRanGd=            0 ICorTp=0 IEmpDi=  4
 NAtoms=   19 NActive=   19 NUniq=   19 SFac= 1.00D+00 NAtFMM=   60 NAOKFM=F Big=F
 Integral buffers will be    131072 words long.
 Raffenetti 1 integral format.
 Two-electron integral symmetry is turned on.
 Leave Link  301 at Wed May 11 21:38:36 2022, MaxMem= 67108864000 cpu:               1.4 elap:               0.1
 (Enter /cm/shared/apps/gaussian/intel/EM64T/SSE4_2-enabled/binary//g16/l302.exe)
 NPDir=0 NMtPBC=     1 NCelOv=     1 NCel=       1 NClECP=     1 NCelD=      1
         NCelK=      1 NCelE2=     1 NClLst=     1 CellRange=     0.0.
 One-electron integrals computed using PRISM.
 One-electron integral symmetry used in STVInt
   1 Symmetry operations used in ECPInt.
 ECPInt:  NShTT=    2346 NPrTT=    7709 LenC2=    2198 LenP2D=    5435.
 LDataN:  DoStor=T MaxTD1= 7 Len=  274
 NBasis=   129 RedAO= T EigKep=  3.83D-04  NBF=   129
 NBsUse=   129 1.00D-06 EigRej= -1.00D+00 NBFU=   129
 Leave Link  302 at Wed May 11 21:38:36 2022, MaxMem= 67108864000 cpu:               6.9 elap:               0.3
 (Enter /cm/shared/apps/gaussian/intel/EM64T/SSE4_2-enabled/binary//g16/l303.exe)
 DipDrv:  MaxL=1.
 Leave Link  303 at Wed May 11 21:38:36 2022, MaxMem= 67108864000 cpu:               1.3 elap:               0.1
 (Enter /cm/shared/apps/gaussian/intel/EM64T/SSE4_2-enabled/binary//g16/l401.exe)
 ExpMin= 2.00D-02 ExpMax= 4.71D+01 ExpMxC= 4.71D+01 IAcc=3 IRadAn=         5 AccDes= 0.00D+00
 Harris functional with IExCor=  205 and IRadAn=       5 diagonalized for initial guess.
 HarFok:  IExCor=  205 AccDes= 0.00D+00 IRadAn=         5 IDoV= 1 UseB2=F ITyADJ=14
 ICtDFT=  3500011 ScaDFX=  1.000000  1.000000  1.000000  1.000000
 Defaulting to unpruned grid for atomic number  80.
 FoFCou: FMM=F IPFlag=           0 FMFlag=      100000 FMFlg1=           0
         NFxFlg=           0 DoJE=T BraDBF=F KetDBF=T FulRan=T
         wScrn=  0.000000 ICntrl=       500 IOpCl=  0 I1Cent=   200000004 NGrid=           0
         NMat0=    1 NMatS0=      1 NMatT0=    0 NMatD0=    1 NMtDS0=    0 NMtDT0=    0
 Petite list used in FoFCou.
 Harris En= -257.167774799972    
 JPrj=0 DoOrth=F DoCkMO=F.
 Leave Link  401 at Wed May 11 21:38:36 2022, MaxMem= 67108864000 cpu:               8.7 elap:               0.4
 (Enter /cm/shared/apps/gaussian/intel/EM64T/SSE4_2-enabled/binary//g16/l502.exe)
 Integral symmetry usage will be decided dynamically.
 Closed shell SCF:
 Using DIIS extrapolation, IDIIS=  1040.
 NGot= 67108864000 LenX= 67108825412 LenY= 67108808330
 Requested convergence on RMS density matrix=1.00D-08 within 128 cycles.
 Requested convergence on MAX density matrix=1.00D-06.
 Requested convergence on             energy=1.00D-06.
 No special actions if energy rises.
 Fock matrices will be formed incrementally for  20 cycles.

 Cycle   1  Pass 0  IDiag  1:
 FoFJK:  IHMeth= 1 ICntrl=       0 DoSepK=F KAlg= 0 I1Cent=           0 FoldK=F
 IRaf= 880000000 NMat=       1 IRICut=       1 DoRegI=T DoRafI=F ISym2E= 0 IDoP0=0 IntGTp=1.
 FoFCou: FMM=F IPFlag=           0 FMFlag=      100000 FMFlg1=           0
         NFxFlg=           0 DoJE=F BraDBF=F KetDBF=F FulRan=T
         wScrn=  0.000000 ICntrl=         0 IOpCl=  0 I1Cent=           0 NGrid=           0
         NMat0=    1 NMatS0=      1 NMatT0=    0 NMatD0=    1 NMtDS0=    0 NMtDT0=    0
 Symmetry not used in FoFCou.
 E= -252.946563148624    
 DIIS: error= 3.68D-02 at cycle   1 NSaved=   1.
 NSaved= 1 IEnMin= 1 EnMin= -252.946563148624     IErMin= 1 ErrMin= 3.68D-02
 ErrMax= 3.68D-02  0.00D+00 EMaxC= 1.00D-01 BMatC= 6.28D-01 BMatP= 6.28D-01
 IDIUse=3 WtCom= 6.32D-01 WtEn= 3.68D-01
 Coeff-Com:  0.100D+01
 Coeff-En:   0.100D+01
 Coeff:      0.100D+01
 Gap=     0.696 Goal=   None    Shift=    0.000
 GapD=    0.696 DampG=2.000 DampE=0.250 DampFc=0.5000 IDamp=-1.
 Damping current iteration by 5.00D-01
 RMSDP=7.99D-03 MaxDP=2.43D-01              OVMax= 2.41D-01

 Cycle   2  Pass 0  IDiag  1:
 RMSU=  3.95D-03    CP:  1.02D+00
 E= -253.213944060615     Delta-E=       -0.267380911991 Rises=F Damp=T
 DIIS: error= 9.62D-03 at cycle   2 NSaved=   2.
 NSaved= 2 IEnMin= 2 EnMin= -253.213944060615     IErMin= 2 ErrMin= 9.62D-03
 ErrMax= 9.62D-03  0.00D+00 EMaxC= 1.00D-01 BMatC= 3.76D-02 BMatP= 6.28D-01
 IDIUse=3 WtCom= 9.04D-01 WtEn= 9.62D-02
 Coeff-Com: -0.226D+00 0.123D+01
 Coeff-En:   0.000D+00 0.100D+01
 Coeff:     -0.204D+00 0.120D+01
 Gap=     0.568 Goal=   None    Shift=    0.000
 RMSDP=2.38D-03 MaxDP=6.16D-02 DE=-2.67D-01 OVMax= 8.00D-02

 Cycle   3  Pass 0  IDiag  1:
 RMSU=  2.15D-03    CP:  1.01D+00  1.25D+00
 E= -253.440209257888     Delta-E=       -0.226265197272 Rises=F Damp=F
 DIIS: error= 2.69D-03 at cycle   3 NSaved=   3.
 NSaved= 3 IEnMin= 3 EnMin= -253.440209257888     IErMin= 3 ErrMin= 2.69D-03
 ErrMax= 2.69D-03  0.00D+00 EMaxC= 1.00D-01 BMatC= 3.27D-03 BMatP= 3.76D-02
 IDIUse=3 WtCom= 9.73D-01 WtEn= 2.69D-02
 Coeff-Com:  0.248D-01-0.542D-01 0.103D+01
 Coeff-En:   0.000D+00 0.000D+00 0.100D+01
 Coeff:      0.242D-01-0.528D-01 0.103D+01
 Gap=     0.551 Goal=   None    Shift=    0.000
 RMSDP=8.90D-04 MaxDP=3.20D-02 DE=-2.26D-01 OVMax= 1.79D-02

 Cycle   4  Pass 0  IDiag  1:
 RMSU=  5.17D-04    CP:  1.00D+00  1.19D+00  1.30D+00
 E= -253.443683877188     Delta-E=       -0.003474619300 Rises=F Damp=F
 DIIS: error= 1.95D-03 at cycle   4 NSaved=   4.
 NSaved= 4 IEnMin= 4 EnMin= -253.443683877188     IErMin= 4 ErrMin= 1.95D-03
 ErrMax= 1.95D-03  0.00D+00 EMaxC= 1.00D-01 BMatC= 6.59D-04 BMatP= 3.27D-03
 IDIUse=3 WtCom= 9.80D-01 WtEn= 1.95D-02
 Coeff-Com:  0.348D-01-0.154D+00 0.329D+00 0.790D+00
 Coeff-En:   0.000D+00 0.000D+00 0.000D+00 0.100D+01
 Coeff:      0.342D-01-0.151D+00 0.323D+00 0.794D+00
 Gap=     0.550 Goal=   None    Shift=    0.000
 RMSDP=3.58D-04 MaxDP=1.10D-02 DE=-3.47D-03 OVMax= 1.51D-02

 Cycle   5  Pass 0  IDiag  1:
 RMSU=  2.03D-04    CP:  1.00D+00  1.19D+00  1.43D+00  1.08D+00
 E= -253.444652134255     Delta-E=       -0.000968257068 Rises=F Damp=F
 DIIS: error= 5.23D-04 at cycle   5 NSaved=   5.
 NSaved= 5 IEnMin= 5 EnMin= -253.444652134255     IErMin= 5 ErrMin= 5.23D-04
 ErrMax= 5.23D-04  0.00D+00 EMaxC= 1.00D-01 BMatC= 4.39D-05 BMatP= 6.59D-04
 IDIUse=3 WtCom= 9.95D-01 WtEn= 5.23D-03
 Coeff-Com: -0.142D-01 0.509D-01-0.135D+00-0.149D+00 0.125D+01
 Coeff-En:   0.000D+00 0.000D+00 0.000D+00 0.000D+00 0.100D+01
 Coeff:     -0.142D-01 0.506D-01-0.134D+00-0.148D+00 0.125D+01
 Gap=     0.546 Goal=   None    Shift=    0.000
 RMSDP=1.69D-04 MaxDP=4.56D-03 DE=-9.68D-04 OVMax= 5.63D-03

 Cycle   6  Pass 0  IDiag  1:
 RMSU=  6.12D-05    CP:  1.00D+00  1.19D+00  1.48D+00  1.23D+00  1.42D+00
 E= -253.444796560299     Delta-E=       -0.000144426044 Rises=F Damp=F
 DIIS: error= 1.75D-04 at cycle   6 NSaved=   6.
 NSaved= 6 IEnMin= 6 EnMin= -253.444796560299     IErMin= 6 ErrMin= 1.75D-04
 ErrMax= 1.75D-04  0.00D+00 EMaxC= 1.00D-01 BMatC= 1.18D-05 BMatP= 4.39D-05
 IDIUse=3 WtCom= 9.98D-01 WtEn= 1.75D-03
 Coeff-Com: -0.839D-02 0.341D-01-0.105D+00-0.158D+00 0.399D+00 0.838D+00
 Coeff-En:   0.000D+00 0.000D+00 0.000D+00 0.000D+00 0.000D+00 0.100D+01
 Coeff:     -0.838D-02 0.340D-01-0.105D+00-0.157D+00 0.398D+00 0.839D+00
 Gap=     0.545 Goal=   None    Shift=    0.000
 RMSDP=7.57D-05 MaxDP=2.00D-03 DE=-1.44D-04 OVMax= 2.75D-03

 Cycle   7  Pass 0  IDiag  1:
 RMSU=  2.02D-05    CP:  9.99D-01  1.19D+00  1.50D+00  1.29D+00  1.58D+00
                    CP:  1.25D+00
 E= -253.444819034436     Delta-E=       -0.000022474136 Rises=F Damp=F
 DIIS: error= 4.76D-05 at cycle   7 NSaved=   7.
 NSaved= 7 IEnMin= 7 EnMin= -253.444819034436     IErMin= 7 ErrMin= 4.76D-05
 ErrMax= 4.76D-05  0.00D+00 EMaxC= 1.00D-01 BMatC= 6.75D-07 BMatP= 1.18D-05
 IDIUse=1 WtCom= 1.00D+00 WtEn= 0.00D+00
 Coeff-Com:  0.268D-02-0.755D-02 0.178D-01 0.323D-01-0.153D+00-0.120D+00
 Coeff-Com:  0.123D+01
 Coeff:      0.268D-02-0.755D-02 0.178D-01 0.323D-01-0.153D+00-0.120D+00
 Coeff:      0.123D+01
 Gap=     0.545 Goal=   None    Shift=    0.000
 RMSDP=2.16D-05 MaxDP=5.46D-04 DE=-2.25D-05 OVMax= 7.48D-04

 Cycle   8  Pass 0  IDiag  1:
 RMSU=  5.52D-06    CP:  9.99D-01  1.19D+00  1.51D+00  1.30D+00  1.63D+00
                    CP:  1.40D+00  1.27D+00
 E= -253.444820535449     Delta-E=       -0.000001501014 Rises=F Damp=F
 DIIS: error= 1.33D-05 at cycle   8 NSaved=   8.
 NSaved= 8 IEnMin= 8 EnMin= -253.444820535449     IErMin= 8 ErrMin= 1.33D-05
 ErrMax= 1.33D-05  0.00D+00 EMaxC= 1.00D-01 BMatC= 4.43D-08 BMatP= 6.75D-07
 IDIUse=1 WtCom= 1.00D+00 WtEn= 0.00D+00
 Coeff-Com:  0.646D-03-0.197D-02 0.660D-02 0.928D-02-0.427D-01-0.380D-01
 Coeff-Com:  0.248D+00 0.818D+00
 Coeff:      0.646D-03-0.197D-02 0.660D-02 0.928D-02-0.427D-01-0.380D-01
 Coeff:      0.248D+00 0.818D+00
 Gap=     0.545 Goal=   None    Shift=    0.000
 RMSDP=1.93D-06 MaxDP=4.17D-05 DE=-1.50D-06 OVMax= 6.02D-05

 Initial convergence to 1.0D-05 achieved.  Increase integral accuracy.
 Cycle   9  Pass 1  IDiag  1:
 E= -253.444820590744     Delta-E=       -0.000000055294 Rises=F Damp=F
 DIIS: error= 6.36D-06 at cycle   1 NSaved=   1.
 NSaved= 1 IEnMin= 1 EnMin= -253.444820590744     IErMin= 1 ErrMin= 6.36D-06
 ErrMax= 6.36D-06  0.00D+00 EMaxC= 1.00D-01 BMatC= 7.12D-09 BMatP= 7.12D-09
 IDIUse=1 WtCom= 1.00D+00 WtEn= 0.00D+00
 Coeff-Com:  0.100D+01
 Coeff:      0.100D+01
 Gap=     0.545 Goal=   None    Shift=    0.000
 RMSDP=1.93D-06 MaxDP=4.17D-05 DE=-5.53D-08 OVMax= 3.87D-05

 Cycle  10  Pass 1  IDiag  1:
 RMSU=  8.57D-07    CP:  1.00D+00
 E= -253.444820601671     Delta-E=       -0.000000010928 Rises=F Damp=F
 DIIS: error= 3.21D-06 at cycle   2 NSaved=   2.
 NSaved= 2 IEnMin= 2 EnMin= -253.444820601671     IErMin= 2 ErrMin= 3.21D-06
 ErrMax= 3.21D-06  0.00D+00 EMaxC= 1.00D-01 BMatC= 2.29D-09 BMatP= 7.12D-09
 IDIUse=1 WtCom= 1.00D+00 WtEn= 0.00D+00
 Coeff-Com:  0.277D+00 0.723D+00
 Coeff:      0.277D+00 0.723D+00
 Gap=     0.545 Goal=   None    Shift=    0.000
 RMSDP=3.29D-07 MaxDP=9.04D-06 DE=-1.09D-08 OVMax= 1.32D-05

 Cycle  11  Pass 1  IDiag  1:
 RMSU=  3.12D-07    CP:  1.00D+00  1.12D+00
 E= -253.444820604557     Delta-E=       -0.000000002885 Rises=F Damp=F
 DIIS: error= 1.71D-06 at cycle   3 NSaved=   3.
 NSaved= 3 IEnMin= 3 EnMin= -253.444820604557     IErMin= 3 ErrMin= 1.71D-06
 ErrMax= 1.71D-06  0.00D+00 EMaxC= 1.00D-01 BMatC= 4.12D-10 BMatP= 2.29D-09
 IDIUse=1 WtCom= 1.00D+00 WtEn= 0.00D+00
 Coeff-Com: -0.345D+00-0.159D+00 0.150D+01
 Coeff:     -0.345D+00-0.159D+00 0.150D+01
 Gap=     0.545 Goal=   None    Shift=    0.000
 RMSDP=3.99D-07 MaxDP=1.33D-05 DE=-2.89D-09 OVMax= 2.16D-05

 Cycle  12  Pass 1  IDiag  1:
 RMSU=  1.09D-07    CP:  1.00D+00  1.52D+00  1.56D+00
 E= -253.444820605828     Delta-E=       -0.000000001272 Rises=F Damp=F
 DIIS: error= 2.44D-07 at cycle   4 NSaved=   4.
 NSaved= 4 IEnMin= 4 EnMin= -253.444820605828     IErMin= 4 ErrMin= 2.44D-07
 ErrMax= 2.44D-07  0.00D+00 EMaxC= 1.00D-01 BMatC= 1.31D-11 BMatP= 4.12D-10
 IDIUse=1 WtCom= 1.00D+00 WtEn= 0.00D+00
 Coeff-Com: -0.785D-01-0.526D-01 0.312D+00 0.819D+00
 Coeff:     -0.785D-01-0.526D-01 0.312D+00 0.819D+00
 Gap=     0.545 Goal=   None    Shift=    0.000
 RMSDP=4.66D-08 MaxDP=1.52D-06 DE=-1.27D-09 OVMax= 2.62D-06

 Cycle  13  Pass 1  IDiag  1:
 RMSU=  2.97D-08    CP:  1.00D+00  1.54D+00  1.63D+00  1.24D+00
 E= -253.444820605854     Delta-E=       -0.000000000025 Rises=F Damp=F
 DIIS: error= 9.51D-08 at cycle   5 NSaved=   5.
 NSaved= 5 IEnMin= 5 EnMin= -253.444820605854     IErMin= 5 ErrMin= 9.51D-08
 ErrMax= 9.51D-08  0.00D+00 EMaxC= 1.00D-01 BMatC= 2.52D-12 BMatP= 1.31D-11
 IDIUse=1 WtCom= 1.00D+00 WtEn= 0.00D+00
 Coeff-Com:  0.868D-01 0.399D-01-0.377D+00-0.230D-01 0.127D+01
 Coeff:      0.868D-01 0.399D-01-0.377D+00-0.230D-01 0.127D+01
 Gap=     0.545 Goal=   None    Shift=    0.000
 RMSDP=3.86D-08 MaxDP=1.17D-06 DE=-2.54D-11 OVMax= 1.87D-06

 Cycle  14  Pass 1  IDiag  1:
 RMSU=  8.96D-09    CP:  1.00D+00  1.54D+00  1.66D+00  1.55D+00  1.38D+00
 E= -253.444820605864     Delta-E=       -0.000000000010 Rises=F Damp=F
 DIIS: error= 1.79D-08 at cycle   6 NSaved=   6.
 NSaved= 6 IEnMin= 6 EnMin= -253.444820605864     IErMin= 6 ErrMin= 1.79D-08
 ErrMax= 1.79D-08  0.00D+00 EMaxC= 1.00D-01 BMatC= 1.22D-13 BMatP= 2.52D-12
 IDIUse=1 WtCom= 1.00D+00 WtEn= 0.00D+00
 Coeff-Com:  0.183D-01 0.937D-02-0.791D-01-0.266D-01 0.218D+00 0.860D+00
 Coeff:      0.183D-01 0.937D-02-0.791D-01-0.266D-01 0.218D+00 0.860D+00
 Gap=     0.545 Goal=   None    Shift=    0.000
 RMSDP=5.03D-09 MaxDP=1.43D-07 DE=-1.03D-11 OVMax= 2.79D-07

 SCF Done:  E(RHF) =  -253.444820606     A.U. after   14 cycles
            NFock= 14  Conv=0.50D-08     -V/T= 2.9207
 KE= 1.319527714119D+02 PE=-1.163316119341D+03 EE= 4.692278412424D+02
 Leave Link  502 at Wed May 11 21:38:38 2022, MaxMem= 67108864000 cpu:              59.4 elap:               2.2
 (Enter /cm/shared/apps/gaussian/intel/EM64T/SSE4_2-enabled/binary//g16/l801.exe)
 Range of M.O.s used for correlation:     1   129
 NBasis=   129 NAE=    33 NBE=    33 NFC=     0 NFV=     0
 NROrb=    129 NOA=    33 NOB=    33 NVA=    96 NVB=    96

 **** Warning!!: The largest alpha MO coefficient is  0.28653226D+02

 Leave Link  801 at Wed May 11 21:38:39 2022, MaxMem= 67108864000 cpu:               0.6 elap:               0.0
 (Enter /cm/shared/apps/gaussian/intel/EM64T/SSE4_2-enabled/binary//g16/l906.exe)
 FulOut=F Deriv=T AODrv=T NAtomX=    19
   MMem=           0  MDisk=          33 MDiskD=          33
  W3Min=      549153 MinDsk=     1693460 NBas6D=         129
 NBas2D=        8499    NTT=        8385    LW2=     3308096
    MDV= 67108629677 MDiskM=     7225089 NBas2p=        7748
 Disk-based method using ON**2 memory for 33 occupieds at a time.
 Permanent disk used for amplitudes=    12443904 words.
 Estimated scratch disk usage=   126188868 words.
 IMap=   1   2   3   4   5   6   7   8   9  10  11  12  13  14  15  16  17  18  19  20
 IMap=  21  22  23  24  25  26  27  28  29  30  31  32  33
 Actual    scratch disk usage=   115200324 words.
 JobTyp=1 Pass  1:  I=   1 to  33 NPSUse= 28 ParTrn=T ParDer=T DoDerP=T.
 (rs|ai) integrals will be sorted in core.
 Spin components of T(2) and E(2):
     alpha-alpha T2 =       0.3667581596D-01 E2=     -0.1172593959D+00
     alpha-beta  T2 =       0.2139717730D+00 E2=     -0.6948888679D+00
     beta-beta   T2 =       0.3667581596D-01 E2=     -0.1172593959D+00
 The integrals were generated   1 times.
 ANorm=    0.1134602752D+01
 E2 =    -0.9294076596D+00 EUMP2 =    -0.25437422826551D+03
 Leave Link  906 at Wed May 11 21:38:53 2022, MaxMem= 67108864000 cpu:             405.7 elap:              14.5
 (Enter /cm/shared/apps/gaussian/intel/EM64T/SSE4_2-enabled/binary//g16/l1101.exe)
 Using compressed Sx but separate Hx and Fx, NAtomX=    19.
 Will process     20 centers per pass.
   1 Symmetry operations used in ECPInt.
 ECPInt:  NShTT=    2346 NPrTT=    7709 LenC2=    2198 LenP2D=    5435.
 LDataN:  DoStor=T MaxTD1= 8 Len=  415
 Leave Link 1101 at Wed May 11 21:38:54 2022, MaxMem= 67108864000 cpu:              11.6 elap:               0.4
 (Enter /cm/shared/apps/gaussian/intel/EM64T/SSE4_2-enabled/binary//g16/l1102.exe)
 Leave Link 1102 at Wed May 11 21:38:54 2022, MaxMem= 67108864000 cpu:               0.7 elap:               0.0
 (Enter /cm/shared/apps/gaussian/intel/EM64T/SSE4_2-enabled/binary//g16/l1110.exe)
 Forming Gx(P) for the SCF density, NAtomX=    19.
 Integral derivatives from FoFJK, PRISM(SPDF).
 Do as many integral derivatives as possible in FoFJK.
 G2DrvN: MDV=   67108862534.
 G2DrvN: will do    20 centers at a time, making    1 passes.
 Calling FoFCou, ICntrl=  3107 FMM=F I1Cent=   0 AccDes= 0.00D+00.
 FoFJK:  IHMeth= 1 ICntrl=    3107 DoSepK=F KAlg= 0 I1Cent=           0 FoldK=F
 IRaf=         0 NMat=       1 IRICut=       1 DoRegI=T DoRafI=F ISym2E= 0 IDoP0=0 IntGTp=1.
 FoFCou: FMM=F IPFlag=           0 FMFlag=      100000 FMFlg1=           0
         NFxFlg=           0 DoJE=F BraDBF=F KetDBF=F FulRan=T
         wScrn=  0.000000 ICntrl=      3107 IOpCl=  0 I1Cent=           0 NGrid=           0
         NMat0=    1 NMatS0=      1 NMatT0=    0 NMatD0=    1 NMtDS0=    0 NMtDT0=    0
 Symmetry not used in FoFCou.
 End of G2Drv F.D. properties file   721 does not exist.
 End of G2Drv F.D. properties file   722 does not exist.
 End of G2Drv F.D. properties file   788 does not exist.
 Leave Link 1110 at Wed May 11 21:38:54 2022, MaxMem= 67108864000 cpu:              11.9 elap:               0.5
 (Enter /cm/shared/apps/gaussian/intel/EM64T/SSE4_2-enabled/binary//g16/l1002.exe)
 Minotr:  Closed shell wavefunction.
          IDoAtm=1111111111111111111
          Direct CPHF calculation.
          Differentiating once with respect to electric field.
                with respect to dipole field.
          Differentiating once with respect to nuclear coordinates.
          Requested convergence is 1.0D-08 RMS, and 1.0D-07 maximum.
          Secondary convergence is 1.0D-12 RMS, and 1.0D-12 maximum.
          NewPWx=T KeepS1=T KeepF1=T KeepIn=T MapXYZ=F SortEE=F KeepMc=T.
 Keep R1 ints in memory in canonical form, NReq=41148674.
 FoFCou: FMM=F IPFlag=           0 FMFlag=           0 FMFlg1=           0
         NFxFlg=           0 DoJE=F BraDBF=F KetDBF=F FulRan=T
         wScrn=  0.000000 ICntrl=       600 IOpCl=  0 I1Cent=           0 NGrid=           0
         NMat0=    1 NMatS0=   8385 NMatT0=    0 NMatD0=    1 NMtDS0=    0 NMtDT0=    0
 Symmetry not used in FoFCou.
 Two-electron integral symmetry not used.
          MDV=   67108864000 using IRadAn=       1.
          Solving linear equations simultaneously, MaxMat=       0.
          There are    60 degrees of freedom in the 1st order CPHF.  IDoFFX=6 NUNeed=    60.
     57 vectors produced by pass  0 Test12= 5.28D-15 1.67D-09 XBig12= 1.31D+01 1.53D+00.
 AX will form    57 AO Fock derivatives at one time.
     57 vectors produced by pass  1 Test12= 5.28D-15 1.67D-09 XBig12= 3.22D-01 1.13D-01.
     57 vectors produced by pass  2 Test12= 5.28D-15 1.67D-09 XBig12= 6.95D-03 2.01D-02.
     57 vectors produced by pass  3 Test12= 5.28D-15 1.67D-09 XBig12= 5.59D-05 1.32D-03.
     57 vectors produced by pass  4 Test12= 5.28D-15 1.67D-09 XBig12= 3.34D-07 1.03D-04.
     57 vectors produced by pass  5 Test12= 5.28D-15 1.67D-09 XBig12= 1.91D-09 7.65D-06.
     34 vectors produced by pass  6 Test12= 5.28D-15 1.67D-09 XBig12= 8.55D-12 4.30D-07.
      3 vectors produced by pass  7 Test12= 5.28D-15 1.67D-09 XBig12= 3.75D-14 2.48D-08.
      1 vectors produced by pass  8 Test12= 5.28D-15 1.67D-09 XBig12= 2.10D-16 2.06D-09.
 InvSVY:  IOpt=1 It=  1 EMax= 1.33D-15
 Solved reduced A of dimension   380 with    60 vectors.
 FullF1:  Do perturbations      1 to      60.
 Saving first derivative matrices.
 End of Minotr F.D. properties file   721 does not exist.
 End of Minotr F.D. properties file   722 does not exist.
 End of Minotr F.D. properties file   788 does not exist.
 Leave Link 1002 at Wed May 11 21:38:56 2022, MaxMem= 67108864000 cpu:              47.2 elap:               1.8
 (Enter /cm/shared/apps/gaussian/intel/EM64T/SSE4_2-enabled/binary//g16/l811.exe)
 MDV= 67108864000.
 Form MO integral derivatives with frozen-active canonical formalism.
 MOERI=1 MOERIx=1 NAtoms=    19 NAtomX=    19.
 Discarding MO integrals.
 MO basis two electron integral derivatives will not be stored on disk.
 IAlg= 3 DoFC=T DoPWx=T Debug=F.
 Reordered first order wavefunction length =     20072448
 In DefCFB: NBatch=  1 ICI= 33 ICA= 96 LFMax= 96
            Large arrays: LIAPS=   210874752 LIARS=   111567456 words.
 In StABat: MaxSiz= 39 MinSiz= 13 NAtomB=  4
 DoIAMN: NPSUse= 28.
 Leave Link  811 at Wed May 11 21:39:36 2022, MaxMem= 67108864000 cpu:            1119.7 elap:              40.0
 (Enter /cm/shared/apps/gaussian/intel/EM64T/SSE4_2-enabled/binary//g16/l804.exe)
 Closed-shell transformation, MDV= 67108864000 ITran=4 ISComp=1.
 Semi-Direct transformation.
 ModeAB=           4 MOrb=            33 LenV=   67108322566
 LASXX=     28702344 LTotXX=    28702344 LenRXX=    58192761
 LTotAB=    29490417 MaxLAS=    32246775 LenRXY=           0
 NonZer=    86895105 LenScr=   131092480 LnRSAI=    32246775
 LnScr1=    49125888 LExtra=           0 Total=    270657904
 MaxDsk=          -1 SrtSym=           T ITran=            4
 DoSDTr:  NPSUse= 28
 JobTyp=0 Pass  1:  I=   1 to  33.
 (rs|ai) integrals will be sorted in core.
 Complete sort for first half transformation.
 First half transformation complete.
 Begin second half transformation for I=  10.
 Begin second half transformation for I=  20.
 Begin second half transformation for I=  30.
 Complete sort for second half transformation.
 Second half transformation complete.
 SymMOI:  orbitals are not symmetric.
 Spin components of T(2) and E(2):
     alpha-alpha T2 =       0.3667581596D-01 E2=     -0.1172593959D+00
     alpha-beta  T2 =       0.2139717730D+00 E2=     -0.6948888679D+00
     beta-beta   T2 =       0.3667581596D-01 E2=     -0.1172593959D+00
 ANorm=    0.1604570600D+01
 E2 =    -0.9294076596D+00 EUMP2 =    -0.25437422826551D+03
 Leave Link  804 at Wed May 11 21:39:41 2022, MaxMem= 67108864000 cpu:             142.7 elap:               5.1
 (Enter /cm/shared/apps/gaussian/intel/EM64T/SSE4_2-enabled/binary//g16/l1002.exe)
 Minotr:  Closed shell wavefunction.
          Computing MP2/KS-MP2 derivatives.
          Using Z-Vector for PSCF gradient.
          Skipping F1 and S1 gradient terms here.
          IDoAtm=1111111111111111111
          Using MO integrals in the linear equations.
          Forming densities via direct SCF.
          Differentiating once with respect to electric field.
                with respect to dipole field.
          Differentiating once with respect to nuclear coordinates.
          Requested convergence is 1.0D-10 RMS, and 1.0D-09 maximum.
          NewPWx=F KeepS1=T KeepF1=T KeepIn=T MapXYZ=F SortEE=F KeepMc=T.
          MDV=   67108864000 using IRadAn=       5.
          Solving linear equations separately, MaxMat=       0.
          There are     1 degrees of freedom in the 1st order CPHF.  IDoFFX=0 NUNeed=     1.
 FoFJK:  IHMeth= 1 ICntrl=       0 DoSepK=F KAlg= 0 I1Cent=           0 FoldK=F
 IRaf=         0 NMat=       1 IRICut=       1 DoRegI=T DoRafI=F ISym2E= 0 IDoP0=0 IntGTp=1.
 FoFCou: FMM=F IPFlag=           0 FMFlag=      100000 FMFlg1=           0
         NFxFlg=           0 DoJE=F BraDBF=F KetDBF=F FulRan=T
         wScrn=  0.000000 ICntrl=         0 IOpCl=  0 I1Cent=           0 NGrid=           0
         NMat0=    1 NMatS0=      1 NMatT0=    0 NMatD0=    1 NMtDS0=    0 NMtDT0=    0
 Symmetry not used in FoFCou.
 LinEq1:  Iter=  0 NonCon=     1 RMS=6.47D-03 Max=1.20D-01 NDo=     1
 LinEq1:  Iter=  1 NonCon=     1 RMS=1.41D-03 Max=1.21D-02 NDo=     1
 LinEq1:  Iter=  2 NonCon=     1 RMS=4.59D-04 Max=8.38D-03 NDo=     1
 LinEq1:  Iter=  3 NonCon=     1 RMS=1.71D-04 Max=2.19D-03 NDo=     1
 LinEq1:  Iter=  4 NonCon=     1 RMS=5.17D-05 Max=8.78D-04 NDo=     1
 LinEq1:  Iter=  5 NonCon=     1 RMS=1.36D-05 Max=2.12D-04 NDo=     1
 LinEq1:  Iter=  6 NonCon=     1 RMS=5.44D-06 Max=6.73D-05 NDo=     1
 LinEq1:  Iter=  7 NonCon=     1 RMS=1.16D-06 Max=1.31D-05 NDo=     1
 LinEq1:  Iter=  8 NonCon=     1 RMS=4.89D-07 Max=5.03D-06 NDo=     1
 LinEq1:  Iter=  9 NonCon=     1 RMS=1.02D-07 Max=1.32D-06 NDo=     1
 LinEq1:  Iter= 10 NonCon=     1 RMS=2.24D-08 Max=2.47D-07 NDo=     1
 LinEq1:  Iter= 11 NonCon=     1 RMS=9.43D-09 Max=1.28D-07 NDo=     1
 LinEq1:  Iter= 12 NonCon=     1 RMS=1.89D-09 Max=2.47D-08 NDo=     1
 LinEq1:  Iter= 13 NonCon=     1 RMS=3.38D-10 Max=6.17D-09 NDo=     1
 LinEq1:  Iter= 14 NonCon=     1 RMS=7.02D-11 Max=1.26D-09 NDo=     1
 LinEq1:  Iter= 15 NonCon=     0 RMS=3.30D-11 Max=5.29D-10 NDo=     1
 Linear equations converged to 1.000D-10 1.000D-09 after    15 iterations.
 End of Minotr F.D. properties file   721 does not exist.
 End of Minotr F.D. properties file   722 does not exist.
 End of Minotr F.D. properties file   788 does not exist.
 Leave Link 1002 at Wed May 11 21:39:44 2022, MaxMem= 67108864000 cpu:              68.9 elap:               2.5
 (Enter /cm/shared/apps/gaussian/intel/EM64T/SSE4_2-enabled/binary//g16/l1102.exe)
 Use density number 2.
 Symmetrizing basis deriv contribution to polar:
 IMax=3 JMax=2 DiffMx= 0.00D+00
 Leave Link 1102 at Wed May 11 21:39:44 2022, MaxMem= 67108864000 cpu:               1.8 elap:               0.1
 (Enter /cm/shared/apps/gaussian/intel/EM64T/SSE4_2-enabled/binary//g16/l1110.exe)
 Forming Gx(P) for generalized density number  2 NAtomX=    19.
 Integral derivatives from FoFJK, PRISM(SPDF).
 Do as many integral derivatives as possible in FoFJK.
 G2DrvN: MDV=   67108862534.
 G2DrvN: will do    20 centers at a time, making    1 passes.
 Calling FoFCou, ICntrl=  3107 FMM=F I1Cent=   0 AccDes= 0.00D+00.
 FoFJK:  IHMeth= 1 ICntrl=    3107 DoSepK=F KAlg= 0 I1Cent=           0 FoldK=F
 IRaf=         0 NMat=       1 IRICut=       1 DoRegI=T DoRafI=F ISym2E= 0 IDoP0=0 IntGTp=1.
 FoFCou: FMM=F IPFlag=           0 FMFlag=      100000 FMFlg1=           0
         NFxFlg=           0 DoJE=F BraDBF=F KetDBF=F FulRan=T
         wScrn=  0.000000 ICntrl=      3107 IOpCl=  0 I1Cent=           0 NGrid=           0
         NMat0=    1 NMatS0=      1 NMatT0=    0 NMatD0=    1 NMtDS0=    0 NMtDT0=    0
 Symmetry not used in FoFCou.
 End of G2Drv F.D. properties file   721 does not exist.
 End of G2Drv F.D. properties file   722 does not exist.
 End of G2Drv F.D. properties file   788 does not exist.
 Leave Link 1110 at Wed May 11 21:39:44 2022, MaxMem= 67108864000 cpu:              12.1 elap:               0.5
 (Enter /cm/shared/apps/gaussian/intel/EM64T/SSE4_2-enabled/binary//g16/l1112.exe)
 MP22nd: MDV=   67108864000
 This link is doing NAtomX=    19 total of    60 degrees of freedom.
 Using ON3 I/O method in MakUI.
 Using Ix for Sx.
 Using OV2 memory method for fx*t*t/D, MaxI=    33 DoOO2=F NP=  28.
 R2 and R3 integrals will be kept in memory, NReq=    71415045.
 FoFCou: FMM=F IPFlag=           0 FMFlag=           0 FMFlg1=           0
         NFxFlg=           0 DoJE=F BraDBF=F KetDBF=F FulRan=T
         wScrn=  0.000000 ICntrl=       600 IOpCl=  0 I1Cent=           0 NGrid=           0
         NMat0=    1 NMatS0=      1 NMatT0=    0 NMatD0=    1 NMtDS0=    0 NMtDT0=    0
 Symmetry not used in FoFCou.
 DD1Dir will call FoFMem   1 times, MxPair=      1122
 NAB=   561 NAA=     0 NBB=     0.
 Symmetry is being used.
 FoFJK:  IHMeth= 1 ICntrl=       0 DoSepK=F KAlg= 0 I1Cent=           0 FoldK=F
 IRaf=         0 NMat=      60 IRICut=     150 DoRegI=T DoRafI=T ISym2E= 2 IDoP0=0 IntGTp=1.
 Discarding MO integrals.
 Leave Link 1112 at Wed May 11 21:40:17 2022, MaxMem= 67108864000 cpu:             925.3 elap:              33.3
 (Enter /cm/shared/apps/gaussian/intel/EM64T/SSE4_2-enabled/binary//g16/l601.exe)
 Copying SCF densities to generalized density rwf, IOpCl= 0 IROHF=0.

 **********************************************************************

            Population analysis using the SCF density.

 **********************************************************************

 Orbital symmetries:
       Occupied  (A) (A) (A) (A) (A) (A) (A) (A) (A) (A) (A) (A)
                 (A) (A) (A) (A) (A) (A) (A) (A) (A) (A) (A) (A)
                 (A) (A) (A) (A) (A) (A) (A) (A) (A)
       Virtual   (A) (A) (A) (A) (A) (A) (A) (A) (A) (A) (A) (A)
                 (A) (A) (A) (A) (A) (A) (A) (A) (A) (A) (A) (A)
                 (A) (A) (A) (A) (A) (A) (A) (A) (A) (A) (A) (A)
                 (A) (A) (A) (A) (A) (A) (A) (A) (A) (A) (A) (A)
                 (A) (A) (A) (A) (A) (A) (A) (A) (A) (A) (A) (A)
                 (A) (A) (A) (A) (A) (A) (A) (A) (A) (A) (A) (A)
                 (A) (A) (A) (A) (A) (A) (A) (A) (A) (A) (A) (A)
                 (A) (A) (A) (A) (A) (A) (A) (A) (A) (A) (A) (A)
 The electronic state is 1-A.
 Alpha  occ. eigenvalues --   -5.40437  -3.39929  -3.39392  -3.39348  -1.70342
 Alpha  occ. eigenvalues --   -1.66326  -1.66156  -1.64709  -1.62332  -1.58705
 Alpha  occ. eigenvalues --   -1.06523  -1.05146  -1.04863  -1.02796  -1.01437
 Alpha  occ. eigenvalues --   -0.99613  -0.99388  -0.99306  -0.96735  -0.96085
 Alpha  occ. eigenvalues --   -0.96084  -0.91188  -0.88999  -0.87075  -0.84104
 Alpha  occ. eigenvalues --   -0.83527  -0.83307  -0.81440  -0.79617  -0.79127
 Alpha  occ. eigenvalues --   -0.78601  -0.76729  -0.76018
 Alpha virt. eigenvalues --   -0.21528  -0.17460  -0.16747  -0.13411  -0.12986
 Alpha virt. eigenvalues --   -0.09320  -0.08715  -0.07682  -0.06215  -0.05097
 Alpha virt. eigenvalues --   -0.04750  -0.04149  -0.03756  -0.02857  -0.01322
 Alpha virt. eigenvalues --   -0.01114   0.00180   0.00581   0.01639   0.02055
 Alpha virt. eigenvalues --    0.02674   0.03464   0.03700   0.04908   0.05739
 Alpha virt. eigenvalues --    0.06413   0.07495   0.09341   0.10236   0.11990
 Alpha virt. eigenvalues --    0.13045   0.14045   0.14612   0.15193   0.16169
 Alpha virt. eigenvalues --    0.17410   0.18137   0.20679   0.23001   0.23365
 Alpha virt. eigenvalues --    0.24328   0.28168   0.29088   0.29538   0.38058
 Alpha virt. eigenvalues --    0.64551   0.64597   0.70677   0.71861   0.94662
 Alpha virt. eigenvalues --    0.98298   1.04887   1.06290   1.07168   1.09092
 Alpha virt. eigenvalues --    1.09448   1.10642   1.11067   1.11378   1.12270
 Alpha virt. eigenvalues --    1.15166   1.15887   1.16512   1.17329   1.17472
 Alpha virt. eigenvalues --    1.17544   1.18075   1.20545   1.21219   1.22196
 Alpha virt. eigenvalues --    1.24363   1.25333   1.25750   1.28396   1.30133
 Alpha virt. eigenvalues --    1.31722   1.33273   1.36217   1.39455   1.39758
 Alpha virt. eigenvalues --    1.41103   1.45932   1.49475   1.61936   2.17157
 Alpha virt. eigenvalues --    2.29520   2.44523   2.65490   2.94060   3.12512
 Alpha virt. eigenvalues --    4.26514  15.50637  41.61506  41.61802  41.76616
 Alpha virt. eigenvalues --   81.49070
          Condensed to atoms (all electrons):
               1          2          3          4          5          6
     1  Hg  18.421495   0.000036  -0.000042   0.000027  -0.016422   0.172554
     2  H    0.000036   0.235163   0.260480  -0.012767   0.000000   0.000008
     3  O   -0.000042   0.260480   6.342396   0.260744   0.000021  -0.000128
     4  H    0.000027  -0.012767   0.260744   0.240428  -0.000000   0.000012
     5  H   -0.016422   0.000000   0.000021  -0.000000   0.279614   0.241212
     6  O    0.172554   0.000008  -0.000128   0.000012   0.241212   6.653333
     7  H    0.002018   0.000001   0.000488  -0.000004  -0.002473   0.044945
     8  H    0.000863   0.000000   0.000000   0.000000  -0.000000   0.000004
     9  O   -0.003660   0.000000  -0.000000  -0.000000   0.000010  -0.000074
    10  H    0.000515   0.000000   0.000000   0.000000   0.000000   0.000001
    11  H   -0.003617   0.000000  -0.000000   0.000000   0.000000  -0.000015
    12  O    0.138312   0.000000   0.000000   0.000000  -0.000230  -0.001203
    13  H   -0.003351   0.000000   0.000000   0.000000   0.000000   0.000008
    14  H    0.000027  -0.000017   0.000507  -0.000010   0.000003   0.001583
    15  O   -0.001958   0.002574  -0.060111   0.001372   0.003222  -0.013100
    16  H   -0.000020  -0.001885   0.088364  -0.001884   0.000012   0.000127
    17  H    0.000526  -0.000000  -0.000000  -0.000000   0.000000   0.000000
    18  O   -0.003700   0.000000  -0.000000  -0.000000   0.000010  -0.000045
    19  H    0.000867   0.000000   0.000000   0.000000  -0.000000   0.000003
               7          8          9         10         11         12
     1  Hg   0.002018   0.000863  -0.003660   0.000515  -0.003617   0.138312
     2  H    0.000001   0.000000   0.000000   0.000000   0.000000   0.000000
     3  O    0.000488   0.000000  -0.000000   0.000000  -0.000000   0.000000
     4  H   -0.000004   0.000000  -0.000000   0.000000   0.000000   0.000000
     5  H   -0.002473  -0.000000   0.000010   0.000000   0.000000  -0.000230
     6  O    0.044945   0.000004  -0.000074   0.000001  -0.000015  -0.001203
     7  H    0.138010   0.000000  -0.000000  -0.000000   0.000000   0.000018
     8  H    0.000000   0.242738   0.264350  -0.015524  -0.000010   0.000343
     9  O   -0.000000   0.264350   6.392204   0.262089  -0.000031  -0.029917
    10  H   -0.000000  -0.015524   0.262089   0.247934   0.000003   0.000560
    11  H    0.000000  -0.000010  -0.000031   0.000003   0.149522   0.186482
    12  O    0.000018   0.000343  -0.029917   0.000560   0.186482   6.660183
    13  H    0.000000  -0.000982   0.045490  -0.000913  -0.003648   0.186378
    14  H   -0.006411   0.000000  -0.000000  -0.000000   0.000000   0.000001
    15  O    0.175504  -0.000000   0.000001   0.000000   0.000000  -0.000029
    16  H   -0.000351   0.000000  -0.000000   0.000000  -0.000000   0.000000
    17  H   -0.000000  -0.000000   0.000045  -0.000000  -0.000924   0.000550
    18  O   -0.000000   0.000000  -0.001038   0.000045   0.045782  -0.030216
    19  H    0.000000  -0.000000   0.000000  -0.000000  -0.001001   0.000365
              13         14         15         16         17         18
     1  Hg  -0.003351   0.000027  -0.001958  -0.000020   0.000526  -0.003700
     2  H    0.000000  -0.000017   0.002574  -0.001885  -0.000000   0.000000
     3  O    0.000000   0.000507  -0.060111   0.088364  -0.000000  -0.000000
     4  H    0.000000  -0.000010   0.001372  -0.001884  -0.000000  -0.000000
     5  H    0.000000   0.000003   0.003222   0.000012   0.000000   0.000010
     6  O    0.000008   0.001583  -0.013100   0.000127   0.000000  -0.000045
     7  H    0.000000  -0.006411   0.175504  -0.000351  -0.000000  -0.000000
     8  H   -0.000982   0.000000  -0.000000   0.000000  -0.000000   0.000000
     9  O    0.045490  -0.000000   0.000001  -0.000000   0.000045  -0.001038
    10  H   -0.000913  -0.000000   0.000000   0.000000  -0.000000   0.000045
    11  H   -0.003648   0.000000   0.000000  -0.000000  -0.000924   0.045782
    12  O    0.186378   0.000001  -0.000029   0.000000   0.000550  -0.030216
    13  H    0.148934  -0.000000   0.000000   0.000000   0.000002  -0.000014
    14  H   -0.000000   0.227723   0.249681  -0.004180  -0.000000  -0.000000
    15  O    0.000000   0.249681   6.435817   0.154057  -0.000000   0.000001
    16  H    0.000000  -0.004180   0.154057   0.137280  -0.000000  -0.000000
    17  H    0.000002  -0.000000  -0.000000  -0.000000   0.247922   0.262012
    18  O   -0.000014  -0.000000   0.000001  -0.000000   0.262012   6.392437
    19  H   -0.000010   0.000000  -0.000000  -0.000000  -0.015525   0.264245
              19
     1  Hg   0.000867
     2  H    0.000000
     3  O    0.000000
     4  H    0.000000
     5  H   -0.000000
     6  O    0.000003
     7  H    0.000000
     8  H   -0.000000
     9  O    0.000000
    10  H   -0.000000
    11  H   -0.001001
    12  O    0.000365
    13  H   -0.000010
    14  H    0.000000
    15  O   -0.000000
    16  H   -0.000000
    17  H   -0.015525
    18  O    0.264245
    19  H    0.242827
 Mulliken charges:
               1
     1  Hg   1.295529
     2  H    0.516408
     3  O   -0.892720
     4  H    0.512082
     5  H    0.495021
     6  O   -1.099225
     7  H    0.648256
     8  H    0.508217
     9  O   -0.929470
    10  H    0.505291
    11  H    0.627457
    12  O   -1.111596
    13  H    0.628106
    14  H    0.531093
    15  O   -0.947032
    16  H    0.628479
    17  H    0.505392
    18  O   -0.929519
    19  H    0.508230
 Sum of Mulliken charges =   2.00000
 Mulliken charges with hydrogens summed into heavy atoms:
               1
     1  Hg   1.295529
     3  O    0.135770
     6  O   -0.604204
     9  O    0.084039
    12  O    0.143967
    15  O    0.860796
    18  O    0.084103
         Mulliken charges condensed to fragments:
      1      1.295529
      2      0.704471
 APT charges:
               1
     1  Hg   1.226398
     2  H    0.408236
     3  O   -0.816382
     4  H    0.399267
     5  H    0.280066
     6  O   -0.868955
     7  H    0.796226
     8  H    0.379747
     9  O   -0.777949
    10  H    0.373321
    11  H    0.738779
    12  O   -1.117025
    13  H    0.737821
    14  H    0.411757
    15  O   -1.037254
    16  H    0.890946
    17  H    0.373456
    18  O   -0.778216
    19  H    0.379761
 Sum of APT charges =   2.00000
 APT charges with hydrogens summed into heavy atoms:
               1
     1  Hg   1.226398
     3  O   -0.008879
     6  O   -0.588889
     9  O   -0.024880
    12  O    0.359574
    15  O    1.061675
    18  O   -0.024999
         APT charges condensed to fragments:
      1      1.226398
      2      0.773602
 Electronic spatial extent (au):  <R**2>=           2754.5338
 Charge=              2.0000 electrons
 Dipole moment (field-independent basis, Debye):
    X=              3.1473    Y=              0.6838    Z=              2.5120  Tot=              4.0845
 Quadrupole moment (field-independent basis, Debye-Ang):
   XX=            113.4607   YY=            -31.0349   ZZ=            -43.6395
   XY=             -1.1081   XZ=             11.7375   YZ=             -1.3945
 Traceless Quadrupole moment (field-independent basis, Debye-Ang):
   XX=            100.5320   YY=            -43.9637   ZZ=            -56.5683
   XY=             -1.1081   XZ=             11.7375   YZ=             -1.3945
 Octapole moment (field-independent basis, Debye-Ang**2):
  XXX=            336.9147  YYY=             21.0297  ZZZ=             -7.9418  XYY=            -76.8622
  XXY=             54.0987  XXZ=            106.0896  XZZ=              3.6722  YZZ=             -2.8095
  YYZ=             14.2831  XYZ=             13.3180
 Hexadecapole moment (field-independent basis, Debye-Ang**3):
 XXXX=           2083.8080 YYYY=           -318.7153 ZZZZ=            -79.5257 XXXY=            485.4909
 XXXZ=            434.4903 YYYX=           -161.7694 YYYZ=              6.3772 ZZZX=             20.0378
 ZZZY=              0.5277 XXYY=            -18.8233 XXZZ=           -272.3910 YYZZ=            -57.8388
 XXYZ=            -23.5739 YYXZ=             -8.0853 ZZXY=             30.6384
 N-N= 3.086906860810D+02 E-N=-1.163316118287D+03  KE= 1.319527714119D+02
  Exact polarizability:  78.993  -0.224  52.942  -2.138   0.207  47.236
 Approx polarizability:  42.346   0.673  34.388   0.161   0.117  35.582
 No NMR shielding tensors so no spin-rotation constants.
 Leave Link  601 at Wed May 11 21:40:18 2022, MaxMem= 67108864000 cpu:               4.3 elap:               0.2
 (Enter /cm/shared/apps/gaussian/intel/EM64T/SSE4_2-enabled/binary//g16/l701.exe)
 ... and contract with generalized density number  2.
 Compute integral second derivatives.
   1 Symmetry operations used in ECPInt.
 ECPInt:  NShTT=    2346 NPrTT=    7709 LenC2=    2198 LenP2D=    5435.
 LDataN:  DoStor=T MaxTD1= 9 Len=  602
 Leave Link  701 at Wed May 11 21:40:19 2022, MaxMem= 67108864000 cpu:              36.0 elap:               1.3
 (Enter /cm/shared/apps/gaussian/intel/EM64T/SSE4_2-enabled/binary//g16/l702.exe)
 L702 exits ... SP integral derivatives will be done elsewhere.
 Leave Link  702 at Wed May 11 21:40:19 2022, MaxMem= 67108864000 cpu:               1.3 elap:               0.1
 (Enter /cm/shared/apps/gaussian/intel/EM64T/SSE4_2-enabled/binary//g16/l703.exe)
 Integral derivatives from FoFJK, PRISM(SPDF).
 Compute integral second derivatives, UseDBF=F ICtDFT=           0.
 Calling FoFJK, ICntrl=  10100127 FMM=F ISym2X=0 I1Cent= 0 IOpClX= 0 NMat=1 NMatS=1 NMatT=0.
 FoFJK:  IHMeth= 1 ICntrl=10100127 DoSepK=F KAlg= 0 I1Cent=           0 FoldK=F
 IRaf=         0 NMat=       1 IRICut=       1 DoRegI=T DoRafI=F ISym2E= 0 IDoP0=0 IntGTp=1.
 FoFCou: FMM=F IPFlag=           0 FMFlag=      100000 FMFlg1=         800
         NFxFlg=           0 DoJE=F BraDBF=F KetDBF=F FulRan=T
         wScrn=  0.000000 ICntrl=  10100127 IOpCl=  0 I1Cent=           0 NGrid=           0
         NMat0=    1 NMatS0=      1 NMatT0=    0 NMatD0=    1 NMtDS0=    0 NMtDT0=    0
 Symmetry not used in FoFCou.
 Leave Link  703 at Wed May 11 21:40:20 2022, MaxMem= 67108864000 cpu:              19.6 elap:               0.7
 (Enter /cm/shared/apps/gaussian/intel/EM64T/SSE4_2-enabled/binary//g16/l716.exe)
 Dipole        = 1.35529766D+00 2.76811156D-01 1.01138909D+00
 Polarizability= 7.89931207D+01-2.24124977D-01 5.29423663D+01
                -2.13805821D+00 2.06835547D-01 4.72356096D+01
 Full mass-weighted force constant matrix:
 Low frequencies --- -368.8411 -360.6418 -323.4395 -183.6222  -95.7562  -79.6522
 Low frequencies ---  -76.1039  -32.4822  -22.7572
 ******    7 imaginary frequencies (negative Signs) ****** 
 Diagonal vibrational polarizability:
      413.0599377     509.4088517     357.1319128
 Harmonic frequencies (cm**-1), IR intensities (KM/Mole), Raman scattering
 activities (A**4/AMU), depolarization ratios for plane and unpolarized
 incident light, reduced masses (AMU), force constants (mDyne/A),
 and normal coordinates:
                      1                      2                      3
                      A                      A                      A
 Frequencies --   -367.9683              -359.8662              -322.5856
 Red. masses --      1.0160                 1.0218                 1.0275
 Frc consts  --      0.0811                 0.0780                 0.0630
 IR Inten    --     16.8803                34.8954                52.0022
  Atom  AN      X      Y      Z        X      Y      Z        X      Y      Z
     1  80    -0.00   0.00  -0.00     0.00   0.00   0.00    -0.00   0.00  -0.00
     2   1    -0.01   0.01   0.00    -0.00   0.00  -0.00     0.35  -0.54   0.27
     3   8    -0.00  -0.00   0.01     0.00  -0.00   0.00     0.01  -0.00  -0.03
     4   1     0.01  -0.02   0.01     0.00  -0.01   0.00    -0.44   0.56   0.04
     5   1     0.00   0.02  -0.00     0.00   0.02  -0.00     0.01   0.06  -0.01
     6   8     0.00   0.00  -0.00    -0.00   0.00  -0.00     0.00   0.00  -0.00
     7   1    -0.00  -0.00  -0.00     0.00  -0.00  -0.00     0.00  -0.00  -0.02
     8   1     0.56   0.39  -0.11    -0.09  -0.07   0.04     0.02   0.01   0.01
     9   8    -0.00  -0.01  -0.02     0.00   0.00   0.01    -0.00  -0.00   0.01
    10   1    -0.52  -0.34   0.33     0.08   0.06  -0.04    -0.02  -0.01   0.02
    11   1     0.00   0.00  -0.00    -0.01  -0.00  -0.07     0.00  -0.00  -0.00
    12   8     0.00  -0.00   0.01    -0.01  -0.00  -0.01     0.00  -0.00   0.00
    13   1     0.01   0.01   0.06    -0.00  -0.00  -0.02     0.00  -0.00   0.01
    14   1     0.00  -0.00  -0.01     0.00  -0.00  -0.01    -0.01   0.00   0.01
    15   8    -0.00  -0.00  -0.00     0.00  -0.00  -0.01    -0.00   0.00   0.01
    16   1    -0.00  -0.00   0.00     0.00  -0.00  -0.00    -0.02   0.00   0.04
    17   1     0.07  -0.09  -0.05     0.40  -0.53  -0.21     0.01  -0.01  -0.01
    18   8     0.00  -0.00  -0.00     0.00  -0.00   0.02     0.00  -0.00  -0.01
    19   1    -0.07   0.08  -0.01    -0.44   0.53  -0.01    -0.01   0.00  -0.01
                      4                      5                      6
                      A                      A                      A
 Frequencies --   -177.5132               -93.6762               -75.7231
 Red. masses --      1.3312                 2.8489                 2.6242
 Frc consts  --      0.0247                 0.0147                 0.0089
 IR Inten    --     29.3349                 1.3588                56.8349
  Atom  AN      X      Y      Z        X      Y      Z        X      Y      Z
     1  80    -0.00  -0.01   0.00    -0.00  -0.00  -0.01    -0.00  -0.00  -0.03
     2   1    -0.04  -0.00  -0.03    -0.12  -0.14  -0.44     0.02   0.04   0.12
     3   8    -0.02  -0.02  -0.01     0.07   0.01  -0.19    -0.01   0.02   0.09
     4   1     0.02  -0.04  -0.02     0.36   0.13  -0.31    -0.05   0.01   0.10
     5   1     0.16   0.95  -0.09     0.07   0.07   0.05     0.06  -0.02   0.06
     6   8     0.02   0.12   0.01     0.02   0.04   0.05     0.02  -0.01   0.06
     7   1    -0.01  -0.07   0.02    -0.03   0.00   0.14     0.02  -0.00   0.07
     8   1    -0.01   0.00  -0.06     0.11  -0.06   0.18     0.23  -0.08   0.30
     9   8     0.01  -0.01  -0.04     0.01   0.01   0.09     0.02   0.07   0.11
    10   1     0.03  -0.02  -0.06    -0.05   0.13   0.17    -0.10   0.31   0.28
    11   1    -0.01  -0.01  -0.00    -0.02  -0.03  -0.05    -0.04  -0.01  -0.14
    12   8    -0.00  -0.02  -0.00    -0.02  -0.03  -0.04    -0.05  -0.01  -0.16
    13   1     0.00  -0.02  -0.01    -0.02  -0.02  -0.03    -0.04  -0.00  -0.15
    14   1     0.05  -0.08  -0.09    -0.14   0.10   0.44     0.05  -0.02  -0.01
    15   8    -0.00  -0.04  -0.00    -0.05  -0.01   0.24     0.03   0.00   0.03
    16   1    -0.02  -0.04   0.01    -0.02  -0.00   0.12     0.02   0.01   0.05
    17   1    -0.04   0.00   0.06     0.00  -0.00  -0.11    -0.19  -0.19   0.43
    18   8    -0.02   0.00   0.03    -0.02  -0.03  -0.08     0.02  -0.03   0.18
    19   1     0.02   0.01   0.05    -0.04  -0.05  -0.10     0.30   0.13   0.35
                      7                      8                      9
                      A                      A                      A
 Frequencies --    -32.5635                42.2527                51.2620
 Red. masses --      4.6802                 5.5294                 5.3374
 Frc consts  --      0.0029                 0.0058                 0.0083
 IR Inten    --     11.3988                10.5397                 7.4075
  Atom  AN      X      Y      Z        X      Y      Z        X      Y      Z
     1  80     0.00  -0.05   0.01    -0.03  -0.01   0.02    -0.03   0.01   0.04
     2   1    -0.14   0.30  -0.01     0.41  -0.13   0.03    -0.01  -0.01  -0.06
     3   8    -0.15   0.22  -0.05     0.38  -0.06   0.00    -0.02  -0.02  -0.08
     4   1    -0.21   0.26  -0.03     0.36  -0.13   0.02    -0.04   0.00  -0.07
     5   1     0.03   0.08   0.02     0.01  -0.07   0.11    -0.01   0.01   0.09
     6   8     0.01  -0.04   0.03     0.01   0.08   0.09    -0.02  -0.02   0.09
     7   1     0.02  -0.03  -0.00     0.11   0.25   0.02     0.00  -0.05   0.03
     8   1     0.35   0.06   0.14     0.09  -0.02  -0.04     0.30   0.13  -0.07
     9   8     0.22   0.12   0.05     0.03  -0.01  -0.07     0.20   0.14  -0.12
    10   1     0.18   0.28   0.12     0.01   0.05  -0.03     0.19   0.26  -0.07
    11   1    -0.05   0.05  -0.03    -0.09  -0.05  -0.09    -0.02  -0.01  -0.12
    12   8    -0.00   0.01  -0.03    -0.07  -0.06  -0.09    -0.08   0.03  -0.09
    13   1     0.06   0.03  -0.04    -0.05  -0.06  -0.10    -0.04   0.03  -0.13
    14   1     0.17   0.04  -0.12     0.13   0.12  -0.25     0.11  -0.10  -0.20
    15   8     0.05   0.06  -0.06     0.12   0.21  -0.11     0.03  -0.05  -0.09
    16   1    -0.04   0.11  -0.06     0.23   0.14  -0.06     0.01  -0.04  -0.08
    17   1    -0.12   0.24  -0.18    -0.21   0.04  -0.01     0.25  -0.34  -0.08
    18   8    -0.17   0.14  -0.10    -0.17   0.02  -0.04     0.26  -0.23  -0.12
    19   1    -0.27   0.11  -0.15    -0.15   0.05  -0.02     0.36  -0.28  -0.10
                     10                     11                     12
                      A                      A                      A
 Frequencies --     54.6649               102.0852               137.2030
 Red. masses --      5.1813                 5.9168                 4.7211
 Frc consts  --      0.0091                 0.0363                 0.0524
 IR Inten    --      0.2528                 7.0826                26.6505
  Atom  AN      X      Y      Z        X      Y      Z        X      Y      Z
     1  80    -0.02  -0.01  -0.03    -0.03  -0.07  -0.02    -0.04   0.02  -0.05
     2   1     0.05  -0.07   0.09     0.10   0.01   0.03     0.01   0.12   0.00
     3   8     0.06  -0.01   0.11     0.11   0.04   0.05     0.03   0.05   0.00
     4   1     0.11  -0.07   0.10     0.15   0.01   0.04    -0.00   0.13   0.00
     5   1    -0.11  -0.04  -0.16     0.08   0.39  -0.04     0.21   0.00   0.24
     6   8    -0.05   0.08  -0.17    -0.01  -0.01   0.00     0.05  -0.07   0.25
     7   1    -0.07   0.18  -0.09     0.02   0.06   0.04     0.17  -0.16   0.27
     8   1     0.25   0.13  -0.11    -0.25   0.18   0.04    -0.08   0.07  -0.10
     9   8     0.30   0.02  -0.01    -0.16   0.18   0.07     0.06  -0.06   0.05
    10   1     0.41  -0.02  -0.11    -0.15   0.09   0.04     0.17  -0.21  -0.08
    11   1     0.04  -0.06   0.20     0.05   0.29   0.10     0.04  -0.03   0.22
    12   8     0.04  -0.06   0.20     0.06   0.27   0.08     0.04  -0.03   0.21
    13   1     0.08  -0.05   0.19     0.08   0.28   0.07     0.03  -0.03   0.24
    14   1    -0.29   0.22   0.27     0.07   0.08  -0.02     0.40  -0.19  -0.13
    15   8    -0.12   0.14   0.11     0.03   0.11   0.04     0.22  -0.11   0.04
    16   1    -0.06   0.11   0.10     0.04   0.11   0.05     0.16  -0.04   0.05
    17   1     0.10  -0.04   0.05     0.34   0.12  -0.14     0.12   0.07  -0.11
    18   8     0.04  -0.06   0.11     0.25   0.13  -0.04    -0.01  -0.02   0.04
    19   1    -0.04  -0.08   0.07     0.17   0.02  -0.11    -0.18  -0.11  -0.06
                     13                     14                     15
                      A                      A                      A
 Frequencies --    229.3631               235.9994               276.2548
 Red. masses --      3.4212                 4.3182                 1.1359
 Frc consts  --      0.1060                 0.1417                 0.0511
 IR Inten    --     46.4294                55.7369                 1.3454
  Atom  AN      X      Y      Z        X      Y      Z        X      Y      Z
     1  80    -0.01  -0.02  -0.00     0.01  -0.01  -0.01    -0.00   0.00  -0.00
     2   1    -0.00   0.11   0.06    -0.09  -0.21  -0.07     0.02   0.01   0.04
     3   8    -0.06  -0.02  -0.02    -0.07  -0.08  -0.02     0.00  -0.01   0.01
     4   1    -0.19  -0.01   0.02     0.00  -0.07  -0.05    -0.02  -0.03   0.02
     5   1    -0.09  -0.80   0.16     0.23  -0.19   0.31    -0.00   0.03  -0.01
     6   8     0.07   0.35   0.02     0.05   0.04   0.28    -0.00   0.00  -0.01
     7   1     0.12   0.10  -0.01    -0.35   0.20   0.21     0.00  -0.00  -0.01
     8   1    -0.02   0.05  -0.04     0.02  -0.06  -0.01     0.28  -0.35   0.28
     9   8    -0.01   0.03  -0.02     0.04  -0.09   0.01    -0.01  -0.05  -0.05
    10   1    -0.01   0.01  -0.03     0.06  -0.12  -0.01    -0.15   0.40   0.19
    11   1    -0.01   0.04   0.03     0.05  -0.01   0.01     0.05  -0.03   0.23
    12   8     0.00   0.03   0.01     0.06  -0.00   0.00     0.01   0.01   0.00
    13   1     0.01   0.03  -0.01     0.05   0.01   0.01    -0.06  -0.08  -0.24
    14   1    -0.13   0.01   0.21    -0.10  -0.07  -0.47    -0.00  -0.00   0.00
    15   8     0.07  -0.10  -0.01    -0.27   0.15  -0.08     0.00  -0.01  -0.01
    16   1     0.12  -0.10  -0.07    -0.22   0.01   0.01     0.00  -0.01  -0.01
    17   1     0.03   0.03  -0.01     0.07   0.08  -0.02     0.24   0.28  -0.25
    18   8     0.02   0.02   0.01     0.06   0.08  -0.00     0.03   0.01   0.05
    19   1    -0.01   0.02  -0.00     0.04   0.07  -0.01    -0.29  -0.25  -0.16
                     16                     17                     18
                      A                      A                      A
 Frequencies --    283.9759               323.5352               372.1183
 Red. masses --      3.9139                 1.1763                 1.7268
 Frc consts  --      0.1860                 0.0725                 0.1409
 IR Inten    --     28.8727                97.0802                36.1867
  Atom  AN      X      Y      Z        X      Y      Z        X      Y      Z
     1  80     0.03  -0.01  -0.01     0.00   0.00  -0.00     0.00  -0.00  -0.00
     2   1    -0.07  -0.10  -0.06     0.28   0.32   0.31     0.03   0.03   0.03
     3   8    -0.03  -0.03   0.00     0.04   0.02  -0.04    -0.00  -0.01  -0.01
     4   1     0.04   0.02  -0.03    -0.32  -0.32   0.15    -0.05  -0.04   0.01
     5   1     0.07  -0.04   0.04     0.05   0.14   0.03     0.03   0.00   0.02
     6   8     0.03   0.00   0.04     0.01  -0.03   0.05     0.01  -0.00   0.02
     7   1    -0.07   0.04   0.07    -0.04  -0.00  -0.08    -0.01   0.00   0.02
     8   1    -0.18   0.32  -0.09    -0.04   0.05  -0.02     0.19  -0.31   0.24
     9   8    -0.10   0.26  -0.02    -0.00   0.01   0.01    -0.03   0.02  -0.08
    10   1    -0.08   0.17  -0.07     0.01  -0.04  -0.01    -0.18   0.43   0.15
    11   1    -0.01   0.03   0.24    -0.00  -0.01   0.01     0.00   0.02  -0.15
    12   8    -0.03   0.02   0.07    -0.00  -0.00  -0.00     0.01   0.02   0.17
    13   1    -0.05  -0.01   0.10     0.00   0.00   0.03    -0.01  -0.06  -0.12
    14   1     0.02  -0.06  -0.20    -0.18   0.26   0.47     0.00   0.01   0.01
    15   8    -0.06   0.04  -0.01    -0.05  -0.02  -0.02    -0.01   0.01  -0.00
    16   1    -0.05   0.02   0.06     0.02  -0.02  -0.35     0.01   0.01  -0.04
    17   1     0.03   0.03  -0.19     0.02   0.01  -0.03    -0.29  -0.34   0.26
    18   8    -0.16  -0.23   0.08    -0.01  -0.01  -0.00    -0.04  -0.03  -0.08
    19   1    -0.47  -0.45  -0.12    -0.04  -0.05  -0.02     0.29   0.32   0.17
                     19                     20                     21
                      A                      A                      A
 Frequencies --    411.3335               456.1945               467.0387
 Red. masses --      4.8693                 3.3163                 1.3866
 Frc consts  --      0.4854                 0.4066                 0.1782
 IR Inten    --    101.4646               337.2858               110.7876
  Atom  AN      X      Y      Z        X      Y      Z        X      Y      Z
     1  80    -0.00  -0.00   0.00    -0.00  -0.00  -0.00    -0.00   0.00  -0.00
     2   1     0.01   0.00   0.00     0.05  -0.09  -0.09    -0.22  -0.32  -0.21
     3   8     0.01   0.01   0.00     0.16   0.22   0.10    -0.06  -0.04   0.05
     4   1     0.01   0.00   0.00     0.47   0.38  -0.04     0.23   0.14  -0.09
     5   1     0.01   0.04  -0.01     0.01  -0.08   0.02    -0.00   0.12   0.03
     6   8     0.00   0.02  -0.00     0.03   0.01   0.01     0.02  -0.03   0.06
     7   1    -0.01  -0.01  -0.00    -0.15   0.01  -0.14     0.12   0.13  -0.28
     8   1     0.08  -0.19   0.03     0.01   0.01  -0.01     0.00  -0.01  -0.00
     9   8     0.09  -0.20   0.05    -0.01   0.01  -0.01     0.00   0.00  -0.01
    10   1     0.11  -0.27   0.02     0.00   0.04  -0.01    -0.00   0.00  -0.00
    11   1     0.07   0.49  -0.00    -0.00  -0.01   0.01    -0.00   0.00   0.00
    12   8     0.05   0.38  -0.05    -0.00  -0.00   0.01    -0.00   0.01   0.01
    13   1     0.05   0.47  -0.13    -0.01  -0.00   0.00    -0.00   0.00  -0.00
    14   1     0.00  -0.01  -0.00    -0.33  -0.18  -0.02    -0.39   0.34   0.53
    15   8    -0.00  -0.01   0.00    -0.14  -0.20  -0.10     0.07   0.02  -0.09
    16   1    -0.01  -0.01  -0.00    -0.27  -0.43   0.06    -0.01   0.07   0.12
    17   1    -0.18  -0.23   0.05    -0.01  -0.01   0.01    -0.00  -0.01   0.01
    18   8    -0.14  -0.18   0.00    -0.00  -0.00   0.00    -0.00   0.00   0.00
    19   1    -0.13  -0.16   0.02    -0.00   0.01   0.01     0.00  -0.00   0.01
                     22                     23                     24
                      A                      A                      A
 Frequencies --    589.2501               592.7550               606.8669
 Red. masses --      1.1308                 1.0985                 2.2192
 Frc consts  --      0.2313                 0.2274                 0.4815
 IR Inten    --    150.2985               708.9442                70.8452
  Atom  AN      X      Y      Z        X      Y      Z        X      Y      Z
     1  80     0.00  -0.00   0.00    -0.00   0.00   0.00    -0.01   0.00   0.00
     2   1     0.05  -0.29   0.01     0.07  -0.37   0.02     0.00  -0.05  -0.01
     3   8    -0.01   0.03   0.00    -0.01   0.04   0.01     0.00   0.01   0.01
     4   1     0.10  -0.23   0.01     0.14  -0.28   0.01     0.03  -0.01  -0.00
     5   1     0.01  -0.04  -0.00    -0.00  -0.08   0.01    -0.10   0.01   0.04
     6   8     0.02   0.01  -0.01     0.01   0.02  -0.01    -0.13   0.03   0.03
     7   1    -0.07  -0.25   0.02    -0.09  -0.33   0.04     0.00  -0.06   0.03
     8   1     0.28   0.31  -0.14    -0.19  -0.22   0.09    -0.26  -0.25   0.11
     9   8    -0.04  -0.04   0.02     0.03   0.03  -0.02     0.03   0.06  -0.03
    10   1     0.27   0.30  -0.15    -0.18  -0.21   0.10    -0.25  -0.23   0.13
    11   1     0.03  -0.03  -0.01    -0.04   0.02   0.01     0.22  -0.04  -0.04
    12   8    -0.01   0.01   0.00    -0.00  -0.01   0.00     0.20  -0.03  -0.05
    13   1    -0.08  -0.01   0.02     0.04   0.01  -0.01     0.20  -0.04  -0.03
    14   1     0.28   0.10   0.11     0.38   0.13   0.14     0.05   0.03   0.06
    15   8    -0.00  -0.00  -0.01    -0.01  -0.01  -0.01     0.01  -0.01  -0.01
    16   1    -0.17   0.16  -0.06    -0.23   0.21  -0.08    -0.02   0.05  -0.01
    17   1    -0.14   0.30   0.05     0.11  -0.25  -0.04    -0.24   0.44   0.08
    18   8     0.03  -0.04  -0.01    -0.02   0.03   0.01     0.02  -0.09  -0.01
    19   1    -0.14   0.31   0.03     0.12  -0.25  -0.02    -0.24   0.46   0.05
                     25                     26                     27
                      A                      A                      A
 Frequencies --    646.8532               688.4370               705.0655
 Red. masses --      1.9935                 5.9056                 1.2155
 Frc consts  --      0.4915                 1.6491                 0.3560
 IR Inten    --    317.7454                51.3181               287.4368
  Atom  AN      X      Y      Z        X      Y      Z        X      Y      Z
     1  80    -0.01   0.00   0.00    -0.05   0.01   0.02    -0.00   0.00   0.00
     2   1     0.01  -0.01   0.01     0.08  -0.15   0.07    -0.20   0.43  -0.13
     3   8    -0.01  -0.01  -0.01    -0.03   0.01  -0.02     0.04  -0.08   0.03
     4   1    -0.02  -0.04   0.00    -0.01  -0.26   0.02    -0.07   0.58  -0.05
     5   1     0.13  -0.02  -0.05     0.28  -0.04  -0.11     0.05  -0.03  -0.01
     6   8     0.18  -0.03  -0.05     0.37  -0.07  -0.09     0.04   0.00  -0.02
     7   1    -0.01   0.03  -0.05     0.03   0.15  -0.14    -0.13  -0.31   0.06
     8   1    -0.29  -0.30   0.12     0.14   0.16  -0.04     0.01   0.01  -0.01
     9   8     0.06   0.02  -0.01    -0.05   0.03  -0.01    -0.00   0.00  -0.00
    10   1    -0.25  -0.37   0.14     0.10   0.26  -0.07     0.01   0.02  -0.01
    11   1    -0.07  -0.04  -0.01     0.24   0.00  -0.01     0.02  -0.00  -0.00
    12   8    -0.14   0.02   0.03     0.34  -0.06  -0.08     0.02  -0.00  -0.01
    13   1    -0.06   0.05  -0.02     0.24  -0.07   0.00     0.01  -0.00  -0.00
    14   1    -0.03  -0.02  -0.06    -0.15  -0.11  -0.18     0.37   0.21   0.22
    15   8    -0.01   0.01   0.01     0.00   0.03   0.03    -0.04   0.01  -0.03
    16   1    -0.01  -0.03   0.00     0.03  -0.11   0.04    -0.18   0.11  -0.11
    17   1    -0.16   0.48   0.04     0.04  -0.30   0.00    -0.00  -0.01   0.00
    18   8     0.05  -0.04  -0.00    -0.05  -0.01  -0.00    -0.00  -0.00   0.00
    19   1    -0.22   0.42   0.03     0.10  -0.21   0.00     0.00  -0.00   0.00
                     28                     29                     30
                      A                      A                      A
 Frequencies --    971.4342              1176.9327              1199.9911
 Red. masses --      1.0954                 1.0494                 1.0479
 Frc consts  --      0.6091                 0.8564                 0.8890
 IR Inten    --    242.6791                88.4779                66.7045
  Atom  AN      X      Y      Z        X      Y      Z        X      Y      Z
     1  80    -0.00   0.00   0.00     0.00   0.00  -0.00    -0.00   0.00   0.00
     2   1    -0.01  -0.08  -0.01    -0.00   0.00   0.00     0.02   0.09   0.02
     3   8    -0.01   0.01   0.01    -0.00  -0.00  -0.00     0.01  -0.00  -0.01
     4   1     0.04   0.01  -0.01    -0.00   0.00  -0.00    -0.06  -0.03   0.02
     5   1     0.74  -0.08  -0.00    -0.00  -0.00   0.00     0.64  -0.11   0.05
     6   8    -0.04  -0.00  -0.05    -0.00  -0.00   0.00    -0.04   0.01   0.00
     7   1    -0.08   0.23   0.57     0.00  -0.00  -0.00     0.06  -0.27  -0.62
     8   1     0.00   0.00  -0.00     0.07  -0.08   0.06    -0.00   0.00  -0.00
     9   8    -0.00  -0.00   0.00    -0.01  -0.01  -0.02    -0.00   0.00   0.00
    10   1    -0.00  -0.00  -0.00    -0.00   0.13   0.01     0.00  -0.00  -0.00
    11   1     0.00  -0.00  -0.01    -0.43   0.30  -0.44     0.00  -0.01  -0.01
    12   8    -0.00   0.00  -0.00    -0.00  -0.03   0.00    -0.00   0.00   0.00
    13   1     0.00  -0.00  -0.01     0.50   0.29   0.36     0.00   0.00  -0.01
    14   1    -0.01   0.08   0.15     0.00   0.00   0.00    -0.10  -0.08  -0.11
    15   8     0.01  -0.01  -0.03     0.00   0.00   0.00     0.01   0.01   0.02
    16   1     0.11  -0.05  -0.06    -0.00  -0.00  -0.00    -0.15   0.13   0.18
    17   1    -0.00   0.00  -0.00     0.04   0.12  -0.05     0.00   0.00  -0.00
    18   8     0.00   0.00  -0.00     0.01  -0.01   0.02    -0.00  -0.00   0.00
    19   1     0.00  -0.00  -0.00    -0.09  -0.08  -0.04    -0.00  -0.00  -0.00
                     31                     32                     33
                      A                      A                      A
 Frequencies --   1283.5406              1323.4748              1418.7034
 Red. masses --      1.0392                 1.0635                 1.0889
 Frc consts  --      1.0087                 1.0976                 1.2913
 IR Inten    --      1.3142               315.4423              1537.3873
  Atom  AN      X      Y      Z        X      Y      Z        X      Y      Z
     1  80    -0.00  -0.00   0.00     0.00  -0.00   0.00    -0.00   0.00   0.00
     2   1     0.00  -0.00   0.00     0.00   0.00   0.00    -0.05   0.07  -0.08
     3   8     0.00  -0.00   0.00    -0.00  -0.00   0.00     0.04   0.02  -0.01
     4   1    -0.00  -0.00   0.00    -0.00   0.00   0.00    -0.21  -0.07   0.09
     5   1     0.00  -0.00  -0.00     0.02  -0.00   0.00    -0.09   0.01  -0.01
     6   8     0.00   0.00  -0.00    -0.00   0.00  -0.00     0.02  -0.00  -0.00
     7   1    -0.00  -0.00   0.00     0.00  -0.00  -0.01    -0.06  -0.18   0.26
     8   1    -0.01  -0.09   0.05     0.02  -0.12   0.07     0.00   0.00  -0.00
     9   8     0.01  -0.00  -0.02     0.00  -0.01  -0.03     0.00  -0.00   0.00
    10   1    -0.04   0.08   0.04    -0.04   0.12   0.04     0.00   0.00   0.00
    11   1     0.39  -0.26  -0.51    -0.09   0.12   0.66     0.00   0.01   0.00
    12   8     0.00   0.03  -0.00    -0.00  -0.01  -0.05     0.00  -0.00  -0.00
    13   1    -0.42  -0.01   0.55    -0.09   0.09   0.67     0.00  -0.01   0.00
    14   1    -0.00  -0.00  -0.00    -0.00  -0.00  -0.00    -0.28  -0.07   0.01
    15   8    -0.00  -0.00  -0.00     0.00   0.00   0.00    -0.02  -0.04  -0.04
    16   1     0.00   0.00   0.00    -0.00  -0.00   0.00     0.18   0.68   0.48
    17   1     0.06   0.05  -0.06    -0.07  -0.09   0.07    -0.00   0.00   0.00
    18   8    -0.01   0.01   0.02     0.00  -0.00  -0.03     0.00   0.00  -0.00
    19   1    -0.02  -0.09  -0.02     0.05   0.12   0.03     0.00   0.00  -0.00
                     34                     35                     36
                      A                      A                      A
 Frequencies --   1524.6826              1710.8025              1736.5550
 Red. masses --      1.0666                 1.0794                 1.0931
[...]
 1212995,0.00008603,0.00034425,0.00010965,0.00802644,0.00031258,-0.0172
 4945,0.05321703,-0.08308791,-0.14363774,-0.06565451,0.08435079,0.00021
 801,0.00009315,0.00017874,0.02017446,-0.01181572,-0.02312492,0.1092725
 9,-0.15880716,-0.35794248,-0.12989294,0.16868813,0.37716581,-0.0109220
 6,-0.01747348,-0.02004618,-0.00015399,0.00002299,0.00021099,-0.0001291
 6,0.00007042,-0.00038568,0.00006978,0.00002626,0.00006666,0.03517379,-
 0.00423889,-0.00586619,-0.01205237,0.00005861,0.00012911,-0.00010225,0
 .00020395,-0.00045264,0.00023474,0.00003560,0.00007894,-0.00002454,0.0
 1374504,0.11839209,0.00428392,-0.00040926,-0.00142302,-0.00006315,-0.0
 0000293,0.00008209,-0.00000272,0.00000591,-0.00014907,-0.00000312,0.00
 002274,0.00004832,-0.00801129,0.20526709,0.38537791,-0.17413912,-0.083
 54072,-0.01080647,0.00050376,-0.00015219,0.00034322,-0.00403368,0.0037
 1395,-0.00022839,-0.00002761,-0.00054592,-0.00036269,-0.02445223,-0.00
 776512,0.00334636,0.21902501,-0.09618613,-0.06916956,-0.01278705,0.000
 04685,-0.00029532,0.00030085,-0.00208935,0.00286377,-0.00053629,-0.000
 21942,-0.00046593,-0.00009002,0.00065316,-0.11629636,-0.20180720,0.101
 05292,0.19120273,-0.03307695,-0.02370840,-0.03006935,0.00012780,0.0000
 9669,-0.00054010,0.00153747,-0.00159941,0.00088885,-0.00014009,0.00016
 609,-0.00003692,0.01964074,-0.19530616,-0.38218213,0.00324574,0.217059
 09,0.42127296,-0.00578211,-0.00566015,-0.00590972,-0.00061509,0.000590
 63,-0.00083629,0.00559737,-0.00490228,0.00122035,-0.00013394,0.0012775
 1,0.00017917,0.00706070,0.00027088,-0.00287394,0.00644112,0.00966556,-
 0.00409249,0.23391563,-0.00293988,-0.00212145,-0.00057090,0.00000051,0
 .00020460,-0.00032932,0.00612755,-0.00821832,0.00153620,0.00069596,0.0
 0048840,0.00024426,0.00621792,0.00397784,-0.00502675,0.00478179,-0.013
 99790,-0.00327846,0.06752435,0.09673905,-0.00030918,0.00281459,0.00551
 862,-0.00008119,-0.00033273,0.00130201,-0.00505417,0.00502159,-0.00192
 911,0.00045911,-0.00051021,-0.00009177,0.00680802,0.00119236,-0.002457
 91,-0.01445594,-0.00939572,-0.01692718,-0.06153514,-0.04612448,0.08922
 064,0.00089166,-0.00052015,-0.00016590,-0.00001603,-0.00003660,0.00000
 802,0.00000405,0.00011506,-0.00002307,-0.00003068,-0.00005289,0.000015
 19,0.00002226,-0.00003285,0.00001971,-0.00022890,0.00009057,-0.0000069
 0,0.00007643,-0.00004702,-0.00005056,0.02313273,-0.00042215,-0.0003347
 4,-0.00009378,-0.00001542,0.00001172,-0.00000719,0.00008822,-0.0000698
 6,0.00000732,-0.00001248,0.00002009,0.00000301,-0.00000651,-0.00002792
 ,-0.00007732,0.00029056,0.00011943,0.00001580,-0.00027246,-0.00007188,
 0.00014591,0.04006200,0.37629253,-0.00026539,-0.00000402,0.00028666,-0
 .00000302,-0.00000460,0.00002256,-0.00000088,-0.00000754,-0.00003867,0
 .00001469,0.00001007,0.00002037,0.00000282,-0.00003975,0.00002707,0.00
 008248,0.00006059,-0.00004919,-0.00006896,-0.00000787,0.00007909,-0.00
 346183,0.21222882,0.17497952,-0.00077501,0.00221492,-0.00084997,0.0000
 4111,0.00005273,-0.00002484,-0.00007414,-0.00012034,0.00006268,0.00004
 615,0.00005918,-0.00004000,0.00000263,0.00015208,-0.00000437,0.0000652
 4,-0.00037133,0.00021335,0.00016202,0.00014482,-0.00009966,-0.02993616
 ,-0.02916837,0.00726008,0.20945199,0.00729143,0.00188005,0.00203503,0.
 00007171,-0.00005424,0.00004451,-0.00044758,0.00038089,-0.00004239,0.0
 0004396,-0.00009796,-0.00001821,-0.00009591,0.00015864,0.00048469,-0.0
 0213286,-0.00076200,-0.00045752,0.00165836,0.00040236,-0.00093160,-0.0
 6597001,-0.37246624,-0.17265897,0.07862565,0.47515144,-0.00393093,-0.0
 0043832,-0.00300274,-0.00002965,0.00002753,-0.00006618,0.00023673,-0.0
 0016870,0.00008901,-0.00004975,0.00002348,-0.00001962,0.00012640,0.000
 03502,-0.00039874,0.00129068,0.00027890,0.00053230,-0.00080593,-0.0002
 2776,0.00039844,-0.01805907,-0.21417969,-0.16033601,-0.22208473,0.1581
 2657,0.52652532,0.00029370,-0.00016474,0.00055369,-0.00001811,-0.00002
 207,0.00002004,0.00002873,0.00003850,-0.00003981,-0.00001220,-0.000017
 82,0.00002148,-0.00000499,-0.00010033,0.00004218,-0.00000062,0.0001155
 8,-0.00014550,-0.00009460,-0.00005557,0.00007770,0.00487289,-0.0092727
 8,-0.00376029,-0.16894889,-0.01411472,0.23658308,0.16288161,-0.0002431
 6,0.00004593,0.00071850,-0.00000874,0.00001250,0.00000056,0.00004849,-
 0.00005583,-0.00000130,-0.00000147,0.00001928,0.00000289,-0.00006099,-
 0.00002975,0.00001128,0.00010362,0.00002827,-0.00010572,-0.00015233,-0
 .00002252,0.00008728,0.02491120,0.00139976,-0.04372637,-0.04173382,-0.
 05787014,0.04349866,0.02221460,0.05320281,0.00067596,0.00035792,0.0004
 0321,0.00000456,-0.00000507,0.00002462,-0.00005088,0.00002771,-0.00003
 345,0.00001563,0.00000154,0.00001095,-0.00002825,-0.00002097,0.0001114
 8,-0.00026174,-0.00009967,-0.00013782,0.00015813,0.00004916,-0.0000568
 5,0.02303819,0.00735934,-0.02032666,0.20572740,-0.00180882,-0.33623404
 ,-0.23192285,-0.00651711,0.35818691,-0.01921189,-0.00454023,-0.0025013
 7,-0.00014536,-0.00003682,-0.00002316,0.00068255,-0.00025632,-0.000038
 04,-0.00012796,-0.00000128,0.00008892,0.00002465,-0.00061739,-0.000748
 14,0.00428989,0.00212543,-0.00015348,-0.00276876,-0.00092250,0.0016156
 2,0.00045522,-0.00028241,0.00041060,-0.00341455,-0.00720271,0.00432437
 ,0.00062621,-0.00107400,0.00038063,0.16929536,-0.00980820,0.01145597,-
 0.00466868,0.00009917,0.00003464,0.00001126,-0.00045652,0.00014962,0.0
 0003672,0.00008599,0.00001462,-0.00006617,-0.00046975,0.00013920,0.000
 58751,-0.00213445,-0.00339361,0.00028135,0.00207903,0.00062433,-0.0012
 8941,0.00011492,-0.00056303,0.00025026,-0.00119992,0.00051439,0.000126
 06,-0.00000137,-0.00043671,0.00055298,-0.05242258,0.10996361,-0.006974
 96,-0.00353782,0.00056325,-0.00005058,-0.00001544,0.00001473,0.0002219
 2,-0.00007988,-0.00005112,-0.00002855,0.00000037,0.00005067,0.00004972
 ,0.00000954,-0.00029367,0.00131365,0.00078812,0.00059190,-0.00100632,-
 0.00037857,0.00065696,0.00029214,0.00016186,0.00035259,0.00083145,-0.0
 0033466,-0.00065030,-0.00001493,0.00096008,-0.00034400,0.02323849,-0.0
 2366549,0.06673751,-0.14893806,-0.07206317,-0.03183446,0.00021359,0.00
 000919,0.00006302,-0.00112565,0.00060203,0.00001965,0.00016095,-0.0000
 6627,-0.00013048,-0.00153176,0.00004688,0.00224649,0.00492545,-0.00259
 598,-0.00106781,0.00466808,0.00118410,-0.00265132,-0.00101996,0.000588
 10,0.00132254,0.01082559,-0.00969176,0.00459548,0.00011027,0.00087912,
 -0.00145889,-0.17154025,0.06187164,-0.01118648,0.41930698,-0.06729048,
 -0.07511077,-0.00872930,0.00009460,-0.00008531,0.00006366,-0.00065059,
 0.00063359,-0.00004594,0.00002375,-0.00016983,-0.00003924,-0.00018766,
 0.00123120,0.00094796,-0.00200555,0.00718896,-0.00111890,0.00260853,0.
 00100007,-0.00180429,-0.00099155,-0.00011026,0.00408200,-0.00901040,-0
 .03995673,0.03257370,0.00170369,-0.00785429,-0.00106681,0.07246187,-0.
 10790958,0.02322267,-0.00163747,0.39096613,-0.02348374,-0.00471193,-0.
 02567094,0.00001625,0.00001919,-0.00004585,-0.00006798,0.00005868,0.00
 008844,-0.00003947,-0.00000346,-0.00006202,0.00184542,0.00070080,0.000
 48714,-0.00025393,-0.00069820,0.00813876,0.00114612,0.00013334,-0.0007
 5193,0.00093683,0.00243199,-0.00584564,0.00428324,0.03019174,-0.006031
 70,-0.00086744,0.00179378,0.00105303,-0.03072128,0.03554899,-0.0424476
 7,0.04786621,-0.15558677,0.15812752,-0.00687610,-0.01572633,0.00685430
 ,-0.00002787,-0.00001458,-0.00000700,0.00010612,0.00000325,-0.00000457
 ,-0.00003701,-0.00001634,0.00001432,-0.00041332,-0.00012168,-0.0001657
 6,0.00030501,0.00092222,-0.00117751,-0.00030126,-0.00011744,0.00009800
 ,0.00201179,-0.00176148,-0.00131229,-0.01899143,0.00974095,-0.00066524
 ,0.00054493,-0.00554459,0.00391693,0.01927602,0.01820133,-0.01373607,-
 0.07480077,-0.02932917,0.01798652,0.08663393,-0.01542808,-0.00614828,-
 0.00128685,-0.00013376,0.00007835,-0.00008539,0.00083023,-0.00065359,0
 .00007400,-0.00009099,0.00015407,0.00004140,0.00015790,-0.00034324,-0.
 00090259,0.00460328,0.00217290,0.00068479,-0.00317587,-0.00078686,0.00
 171665,0.00232389,-0.00430872,-0.00032908,0.00109069,-0.00514995,-0.02
 095549,-0.00052298,0.01177824,0.00122000,0.00654709,-0.00687496,0.0099
 1881,-0.01323755,-0.15486137,0.07854551,0.02028023,0.16099444,0.002480
 54,-0.00669346,0.00586860,0.00007827,-0.00004057,0.00007481,-0.0004950
 2,0.00035434,-0.00008069,0.00007595,-0.00006670,-0.00000787,-0.0002003
 1,0.00005532,0.00066630,-0.00344801,-0.00028989,-0.00076664,0.00184133
 ,0.00051991,-0.00107389,-0.00249613,-0.00795990,0.01091180,0.00438447,
 -0.01576805,-0.02015127,-0.00043994,0.00324916,-0.00274842,-0.00204600
 ,-0.00073865,-0.00035807,0.00834724,0.09569593,-0.09218254,-0.01058928
 ,-0.06614710,0.09827287,-0.00080259,-0.00045117,0.00069604,-0.00038128
 ,0.00082624,-0.00051083,-0.00543409,0.00145041,0.00321499,-0.00104358,
 0.00149384,-0.00048898,0.00019399,-0.00019126,0.00042241,-0.00415651,0
 .00052010,-0.00062527,0.01503522,-0.02343910,0.02898929,0.00000236,-0.
 00002361,0.00000724,0.00000742,0.00011055,-0.00007124,-0.00000058,-0.0
 0001059,0.00001845,-0.00010324,0.00002301,0.00000417,0.00013638,0.0000
 6675,-0.00013658,-0.00003347,-0.00021630,0.00012373,0.06325748,-0.0008
 4271,-0.00007423,0.00023095,0.00026613,0.00033393,0.00017956,0.0004986
 7,-0.00033202,-0.00229365,0.00127145,-0.00064532,0.00041532,0.00010601
 ,0.00057036,-0.00038415,0.00084381,-0.00052184,-0.00110898,0.00401715,
 -0.00430126,0.01540528,-0.00004213,-0.00001894,0.00001167,0.00007519,0
 .00010388,-0.00008525,-0.00002703,0.00000325,0.00002289,-0.00034876,0.
 00026400,-0.00010145,0.00049775,0.00013208,0.00000563,-0.00006004,-0.0
 0022267,0.00016061,-0.03621069,0.20107140,0.00047195,0.00039944,0.0006
 0878,0.00010532,0.00028853,0.00006155,0.00329113,-0.00228173,-0.000518
 36,0.00068548,-0.00029650,0.00036171,0.00006391,0.00058846,-0.00013537
 ,-0.00042593,-0.00128966,0.00024377,-0.00841332,0.00644185,-0.00837036
 ,-0.00000257,0.00001443,0.00002606,-0.00002533,-0.00009520,0.00000590,
 0.00001899,0.00001607,0.00000954,0.00018950,-0.00014847,0.00011282,-0.
 00035694,-0.00016284,-0.00014633,0.00001715,0.00017580,-0.00007777,0.0
 3008482,-0.24000249,0.31507442,0.00537595,0.00481204,0.00460560,-0.000
 63183,0.00348531,0.00422813,-0.05237623,0.04665288,-0.00054081,-0.0048
 3682,0.00090732,-0.00570410,-0.00507103,-0.00102340,0.00104028,-0.0345
 7337,-0.01628217,0.01891017,-0.24539186,-0.06321027,0.03702908,-0.0000
 7039,0.00023724,0.00003863,-0.00011106,-0.00137244,0.00069143,0.000061
 81,0.00012949,-0.00014013,0.00215530,-0.00156451,0.00073320,-0.0036294
 4,-0.00205422,-0.00066444,0.00028422,0.00260481,-0.00152390,-0.0790452
 6,0.03044357,-0.02278484,0.49882407,0.00104508,0.00070914,0.00040249,0
 .00304123,-0.00593139,-0.00282690,0.04217867,-0.01349506,-0.00047714,0
 .00302695,-0.00158878,0.00324414,-0.00264675,-0.00230577,0.00140916,-0
 .01060507,0.00580082,0.00500170,-0.07465074,-0.09652468,0.04417501,0.0
 0008240,0.00000741,-0.00000978,-0.00012910,-0.00006864,0.00008408,0.00
 004682,-0.00002131,-0.00002527,0.00048272,-0.00035774,0.00016162,-0.00
 049846,-0.00024870,-0.00004416,0.00006522,0.00018768,-0.00018914,0.047
 43713,-0.19043900,0.23830503,-0.02734386,0.38663234,-0.00078927,-0.002
 00953,-0.00315036,0.00093928,-0.00203623,-0.00185582,0.00181463,-0.000
 67722,0.01710035,-0.00339717,0.00208489,-0.00083458,-0.00081410,-0.000
 23001,-0.00006774,0.02042553,0.00771335,0.00081115,0.07898882,0.056532
 20,-0.07001292,0.00003800,-0.00007101,-0.00006327,0.00004030,0.0004602
 2,-0.00014606,-0.00004393,-0.00005307,0.00000687,-0.00080459,0.0006220
 9,-0.00036779,0.00134384,0.00090300,0.00045421,-0.00004504,-0.00085991
 ,0.00048219,-0.03814614,0.20928529,-0.31099864,-0.06614583,-0.29416877
 ,0.42730188,-0.00317184,-0.00265257,-0.00083264,-0.00451568,0.00245896
 ,-0.00642292,-0.00369490,-0.02595259,-0.00475121,0.00699393,0.00126091
 ,0.00660734,0.00028960,-0.00058914,0.00012805,0.00735933,0.00372754,-0
 .00311327,-0.01897509,0.00371065,0.00983093,0.00005647,-0.00016959,-0.
 00000549,0.00004572,0.00089092,-0.00045739,-0.00002333,-0.00009917,0.0
 0009536,-0.00119201,0.00076860,-0.00037785,0.00207358,0.00137005,0.000
 10514,-0.00016571,-0.00162753,0.00095134,0.01234496,-0.00061796,-0.002
 83042,-0.08013403,0.01864914,0.00625939,0.08227167,0.00119084,0.001994
 77,0.00121420,-0.01022032,0.01120728,0.00377695,-0.01048225,-0.0195382
 9,-0.00791653,-0.00277923,0.00027119,-0.00189772,-0.00021568,0.0007386
 8,0.00011355,-0.00732863,-0.00552714,0.00338139,-0.00009352,0.02284999
 ,-0.01066255,-0.00010939,0.00010319,0.00001853,0.00007837,-0.00057999,
 0.00026261,-0.00001805,0.00007541,-0.00004632,0.00058863,-0.00038106,0
 .00019781,-0.00121233,-0.00097393,-0.00019454,0.00004501,0.00103158,-0
 .00056831,0.00862386,-0.00582792,-0.00200987,0.02297396,-0.08248680,0.
 02274784,-0.00081537,0.07688199,0.00011461,0.00006912,0.00027570,-0.00
 801413,0.00854381,0.00354339,-0.01074514,-0.00539273,-0.04460218,0.014
 05476,-0.00934483,0.00429430,0.00072413,-0.00033844,0.00017156,0.00064
 026,0.00123150,-0.00167360,0.00161149,-0.00964824,0.00474861,0.0000089
 4,-0.00000329,0.00002873,-0.00003536,0.00002327,-0.00006639,0.00002491
 ,0.00000477,0.00002595,0.00001241,-0.00001102,0.00003914,0.00001519,0.
 00001221,-0.00005070,-0.00000580,-0.00004996,0.00005766,-0.02358286,0.
 01821019,0.00377191,0.03052526,0.00502810,-0.05878273,-0.00533765,-0.0
 0834062,0.08821916,-0.00050594,0.00044601,0.00033230,-0.00001623,0.000
 00265,-0.00000221,0.00007524,-0.00004522,-0.00000100,-0.00001235,0.000
 00753,0.00000739,-0.00007119,0.00000257,-0.00005036,0.00023374,-0.0000
 1781,-0.00003794,-0.00022193,-0.00005339,0.00011988,0.00000957,0.00003
 190,0.00001514,0.00013780,-0.00009255,-0.00012208,0.00001849,0.0001804
 2,-0.00003237,0.00000713,-0.00279746,0.00788375,-0.00132622,0.00180306
 ,-0.00272125,-0.00079783,0.00042091,0.00021670,-0.00002827,-0.00000964
 ,0.00001906,0.00019031,-0.00000030,-0.00005970,-0.00013970,0.00008307,
 0.00000082,0.27875823,0.00045728,0.00073212,0.00010197,0.00000175,0.00
 001741,-0.00000174,0.00000380,-0.00004554,0.00000546,0.00000847,0.0000
 2176,-0.00000180,-0.00008247,0.00008929,0.00001458,-0.00009686,-0.0002
 5627,-0.00002285,0.00007867,0.00006953,-0.00005161,0.00031289,-0.00022
 455,0.00004538,-0.00090498,0.00013423,-0.00011238,0.00038010,-0.000324
 02,0.00036200,0.00267489,0.00155933,-0.00572891,0.00088136,-0.00178957
 ,0.00214399,0.00120849,0.00007078,-0.00028338,-0.00002002,0.00005199,0
 .00000598,-0.00002889,-0.00008590,0.00001454,-0.00002802,0.00004575,0.
 00000264,-0.09341215,0.03961380,0.00008235,0.00039952,0.00051257,0.000
 00121,-0.00000125,0.00001497,-0.00001925,0.00000985,-0.00002133,0.0000
 0855,-0.00000048,0.00000940,-0.00006069,0.00000543,0.00005752,-0.00006
 792,-0.00010713,-0.00009200,0.00002794,0.00000738,0.00001667,-0.000020
 86,0.00002032,0.00010885,0.00027206,0.00010795,-0.00043690,-0.00012678
 ,0.00032716,0.00003440,0.00428884,-0.00332889,0.00794512,-0.00528125,0
 .00347238,-0.00355808,-0.00069891,-0.00013065,0.00057467,0.00001806,0.
 00001041,0.00002114,-0.00004185,-0.00001141,-0.00002817,0.00003816,-0.
 00001285,0.00001839,-0.20888480,0.08810175,0.25433781,0.00496013,0.003
 76960,0.00121361,0.00008207,0.00001020,0.00002103,-0.00039439,0.000176
 16,0.00000185,0.00007487,-0.00001081,-0.00004042,-0.00009440,0.0001812
 9,0.00044390,-0.00159661,-0.00113803,-0.00013568,0.00143880,0.00042859
 ,-0.00079101,-0.00029726,0.00008308,-0.00020537,0.00154927,0.00269397,
 -0.00163704,-0.00040285,0.00049562,-0.00014954,-0.00188272,-0.00556431
 ,0.00606970,-0.03511778,0.02985158,-0.01645504,-0.00643001,-0.00466459
 ,0.00288944,0.00010160,0.00016261,-0.00008766,-0.00115314,-0.00018750,
 0.00037068,0.00070689,-0.00036858,0.00000972,-0.28677993,0.07912397,0.
 16924078,0.45919005,-0.00234296,-0.00598093,0.00030024,-0.00003960,-0.
 00004316,0.00000333,0.00015804,0.00002806,-0.00003077,-0.00004429,-0.0
 0004517,0.00003182,0.00027058,-0.00024455,-0.00025135,0.00097534,0.001
 47552,-0.00006476,-0.00091567,-0.00037103,0.00060493,-0.00048164,0.000
 45107,-0.00014125,0.00070840,-0.00160852,0.00143268,-0.00035074,0.0000
 8817,-0.00060851,-0.01631930,-0.01083029,-0.00829356,0.03135301,-0.008
 33625,0.01061643,0.00163756,0.00231028,-0.00159193,0.00004598,-0.00019
 242,0.00006108,0.00062851,0.00029444,-0.00028745,-0.00022869,0.0000569
 0,0.00000857,0.10065920,-0.04471711,-0.07464919,-0.08883226,0.10030581
 ,0.00243197,0.00188122,-0.00090252,0.00002740,0.00001144,-0.00002422,-
 0.00010988,0.00003826,0.00005299,0.00000572,0.00000265,-0.00004120,0.0
 0002034,0.00005433,0.00012693,-0.00066978,-0.00052052,0.00006853,0.000
 62171,0.00020098,-0.00046086,0.00008912,-0.00011865,-0.00021527,-0.000
 28113,0.00091411,-0.00014530,0.00018232,-0.00041883,0.00014816,0.00757
 798,-0.00476287,-0.03149251,-0.01536320,0.00887630,0.00826635,-0.00013
 450,-0.00180780,0.00057630,-0.00002772,0.00005220,-0.00009902,-0.00042
 788,-0.00008674,0.00027033,0.00018671,-0.00011071,-0.00004208,0.226633
 23,-0.07715731,-0.22991401,-0.02366190,0.14980655,0.64937404,0.0000495
 3,0.00025045,-0.00073287,-0.00001397,0.00000185,-0.00001469,0.00007088
 ,-0.00003468,0.00002228,-0.00002271,0.00000380,-0.00000591,0.00000672,
 -0.00001685,-0.00005046,0.00006012,-0.00001970,0.00009761,-0.00011071,
 -0.00003106,0.00000054,0.00006395,0.00002616,-0.00007070,-0.00008369,-
 0.00000698,0.00006489,0.00006751,-0.00003371,0.00001340,0.00357441,-0.
 00682460,-0.00726245,-0.00339098,0.00317319,0.00122540,-0.00028724,0.0
 0023863,-0.00015042,-0.00005055,-0.00002338,-0.00002030,0.00013279,0.0
 0000643,0.00002530,-0.00012987,0.00005962,-0.00002156,0.01046908,0.009
 44172,0.04122436,-0.13395461,-0.02688148,-0.19710051,0.12354936,0.0001
 5208,0.00047516,-0.00025558,-0.00000014,0.00001681,-0.00000644,0.00001
 766,-0.00005391,0.00001134,0.00000517,0.00002493,-0.00000354,-0.000031
 07,0.00006109,-0.00000290,-0.00005789,-0.00016647,0.00008426,0.0000523
 6,0.00005974,-0.00006100,0.00027132,-0.00020907,0.00022190,-0.00056378
 ,-0.00011148,-0.00030170,0.00016891,-0.00003905,0.00024503,-0.00085634
 ,0.00602728,0.00671490,0.00308981,-0.00374544,-0.00095100,0.00058738,0
 .00057131,0.00030180,-0.00003512,0.00004472,-0.00000993,0.00000462,-0.
 00007805,0.00002978,-0.00005616,0.00005839,-0.00000503,-0.00720881,0.0
 0503699,-0.01422030,-0.01621059,-0.03264081,-0.07685461,0.02067060,0.0
 2466784,-0.00063432,-0.00035166,0.00032228,-0.00000996,-0.00000457,0.0
 0001389,0.00004114,-0.00001606,-0.00002869,0.00000175,-0.00000024,0.00
 002110,-0.00001265,-0.00002860,-0.00004866,0.00029289,0.00018893,-0.00
 007332,-0.00025294,-0.00007295,0.00019173,-0.00015924,0.00012204,0.000
 03141,0.00037038,-0.00027267,0.00013429,-0.00016292,0.00015220,-0.0001
 3388,-0.00509132,0.00066243,-0.00105958,0.00351116,-0.00129572,0.00017
 795,-0.00034527,0.00017787,-0.00003803,0.00001042,-0.00001402,0.000048
 25,0.00017202,0.00002800,-0.00011891,-0.00007359,0.00004714,0.00002317
 ,-0.02331655,-0.00743830,-0.02960103,-0.13709706,-0.07694684,-0.395546
 68,0.16275609,0.08506300,0.42568469\\0.00315162,0.00613082,0.00727097,
 -0.00071009,0.00084317,-0.01209096,-0.00897984,-0.01103799,0.01003146,
 0.00336449,0.00985501,0.00530164,-0.00702700,-0.00751957,-0.00856323,-
 0.00720345,-0.00376676,0.00254912,-0.00228308,-0.00212149,-0.00862153,
 -0.00750682,0.00586501,0.00774210,0.01159503,0.00175495,0.00120713,-0.
 00089605,-0.00438433,-0.01097852,-0.00606910,0.00262944,0.00632198,0.0
 1472772,-0.00039165,-0.01343775,-0.00482193,0.00008120,0.00780560,-0.0
 0231299,-0.00993416,-0.00031711,0.00518291,0.01552849,0.01585391,0.004
 76157,-0.00309051,-0.01014446,0.00009376,-0.00708240,-0.00909793,0.009
 24535,0.00755424,-0.00220494,-0.00431211,-0.00091347,0.01137252\\\@


 THERE ARE PEOPLE SO ADDICTED TO EXAGERATING THEY
 CAN'T TELL THE TRUTH WITHOUT LYING. -- FORTUNE COOKIE
 Job cpu time:       0 days  0 hours 48 minutes 16.6 seconds.
 Elapsed time:       0 days  0 hours  1 minutes 44.6 seconds.
 File lengths (MBytes):  RWF=   2793 Int=      0 D2E=      0 Chk=      3 Scr=      1
 Normal termination of Gaussian 16 at Wed May 11 21:40:21 2022.
