 Entering Gaussian System, Link 0=g16
 Initial command:
 /cm/shared/apps/gaussian/intel/EM64T/SSE4_2-enabled/binary//g16/l1.exe "/scratch/florez/25750/Gau-5057.inp" -scrdir="/scratch/florez/25750/"
 Entering Link 1 = /cm/shared/apps/gaussian/intel/EM64T/SSE4_2-enabled/binary//g16/l1.exe PID=      5060.
  
 Copyright (c) 1988,1990,1992,1993,1995,1998,2003,2009,2016,
            Gaussian, Inc.  All Rights Reserved.
  
 This is part of the Gaussian(R) 16 program.  It is based on
 the Gaussian(R) 09 system (copyright 2009, Gaussian, Inc.),
 the Gaussian(R) 03 system (copyright 2003, Gaussian, Inc.),
 the Gaussian(R) 98 system (copyright 1998, Gaussian, Inc.),
 the Gaussian(R) 94 system (copyright 1995, Gaussian, Inc.),
 the Gaussian 92(TM) system (copyright 1992, Gaussian, Inc.),
 the Gaussian 90(TM) system (copyright 1990, Gaussian, Inc.),
 the Gaussian 88(TM) system (copyright 1988, Gaussian, Inc.),
 the Gaussian 86(TM) system (copyright 1986, Carnegie Mellon
 University), and the Gaussian 82(TM) system (copyright 1983,
 Carnegie Mellon University). Gaussian is a federally registered
 trademark of Gaussian, Inc.
  
 This software contains proprietary and confidential information,
 including trade secrets, belonging to Gaussian, Inc.
  
 This software is provided under written license and may be
 used, copied, transmitted, or stored only in accord with that
 written license.
  
 The following legend is applicable only to US Government
 contracts under FAR:
  
                    RESTRICTED RIGHTS LEGEND
  
 Use, reproduction and disclosure by the US Government is
 subject to restrictions as set forth in subparagraphs (a)
 and (c) of the Commercial Computer Software - Restricted
 Rights clause in FAR 52.227-19.
  
 Gaussian, Inc.
 340 Quinnipiac St., Bldg. 40, Wallingford CT 06492
  
  
 ---------------------------------------------------------------
 Warning -- This program may not be used in any manner that
 competes with the business of Gaussian, Inc. or will provide
 assistance to any competitor of Gaussian, Inc.  The licensee
 of this program is prohibited from giving any competitor of
 Gaussian, Inc. access to this program.  By using this program,
 the user acknowledges that Gaussian, Inc. is engaged in the
 business of creating and licensing software in the field of
 computational chemistry and represents and warrants to the
 licensee that it is not a competitor of Gaussian, Inc. and that
 it will not use this program in any manner prohibited above.
 ---------------------------------------------------------------
  

 Cite this work as:
 Gaussian 16, Revision A.03,
 M. J. Frisch, G. W. Trucks, H. B. Schlegel, G. E. Scuseria, 
 M. A. Robb, J. R. Cheeseman, G. Scalmani, V. Barone, 
 G. A. Petersson, H. Nakatsuji, X. Li, M. Caricato, A. V. Marenich, 
 J. Bloino, B. G. Janesko, R. Gomperts, B. Mennucci, H. P. Hratchian, 
 J. V. Ortiz, A. F. Izmaylov, J. L. Sonnenberg, D. Williams-Young, 
 F. Ding, F. Lipparini, F. Egidi, J. Goings, B. Peng, A. Petrone, 
 T. Henderson, D. Ranasinghe, V. G. Zakrzewski, J. Gao, N. Rega, 
 G. Zheng, W. Liang, M. Hada, M. Ehara, K. Toyota, R. Fukuda, 
 J. Hasegawa, M. Ishida, T. Nakajima, Y. Honda, O. Kitao, H. Nakai, 
 T. Vreven, K. Throssell, J. A. Montgomery, Jr., J. E. Peralta, 
 F. Ogliaro, M. J. Bearpark, J. J. Heyd, E. N. Brothers, K. N. Kudin, 
 V. N. Staroverov, T. A. Keith, R. Kobayashi, J. Normand, 
 K. Raghavachari, A. P. Rendell, J. C. Burant, S. S. Iyengar, 
 J. Tomasi, M. Cossi, J. M. Millam, M. Klene, C. Adamo, R. Cammi, 
 J. W. Ochterski, R. L. Martin, K. Morokuma, O. Farkas, 
 J. B. Foresman, and D. J. Fox, Gaussian, Inc., Wallingford CT, 2016.
 
 ******************************************
 Gaussian 16:  ES64L-G16RevA.03 25-Dec-2016
                11-May-2022 
 ******************************************
 %chk=w6s18.chk
 %nproc=28
 Will use up to   28 processors via shared memory.
 %mem=500gb
 ------------------------
 #p MP2(full) SDDAll freq
 ------------------------
 1/10=4,30=1,38=1/1,3;
 2/12=2,17=6,18=5,40=1/2;
 3/5=17,6=6,11=9,25=1,30=1,71=2,140=1/1,2,3;
 4//1;
 5/5=2,38=5,98=1/2;
 8/6=3,8=1,10=90,19=11/1;
 9/15=3,16=-3/6;
 11/6=1,8=1,15=11,17=11,24=-1,27=1,28=-2,29=300,32=6,42=3/1,2,10;
 10/6=2,21=1/2;
 8/6=4,8=1,10=90,19=11/11,4;
 10/5=1,20=4/2;
 11/12=2,14=11,16=1,28=-2,42=3/2,10,12;
 6/7=2,8=2,9=2,10=2/1;
 7/8=1,10=1,12=2,25=1,44=2/1,2,3,16;
 1/10=4,30=1/3;
 99//99;
 Leave Link    1 at Wed May 11 22:09:38 2022, MaxMem= 67108864000 cpu:               1.7 elap:               0.1
 (Enter /cm/shared/apps/gaussian/intel/EM64T/SSE4_2-enabled/binary//g16/l101.exe)
 ----------------------------------------------------------------------
 file 'w6s18.log' Now we use Def2-QZVPPD, but it was opt at: ---'ZORA-S
 R+SO PBE QZ4P'---
 ----------------------------------------------------------------------
 Symbolic Z-matrix:
 Charge =  2 Multiplicity = 1
 Hg(Fragment=1)        0.08902   0.07564   0.08018 
 O(Fragment=2)        -1.06985   1.89613  -1.00996 
 H(Fragment=2)        -1.76522   1.77948  -1.68276 
 H(Fragment=2)        -1.40366   2.57369  -0.39373 
 O(Fragment=2)        -1.81805  -1.3126    0.61018 
 H(Fragment=2)        -2.64583  -0.98099   1.00365 
 H(Fragment=2)        -2.0848   -1.90649  -0.1152 
 O(Fragment=2)         0.1394    1.79831   1.77588 
 H(Fragment=2)        -0.13474   1.66491   2.70161 
 H(Fragment=2)         0.9815    2.28784   1.81334 
 O(Fragment=2)         0.26156  -1.67868  -1.5746 
 H(Fragment=2)         0.90025  -2.37702  -1.34098 
 H(Fragment=2)         0.37232  -1.52268  -2.53027 
 O(Fragment=2)         1.10328  -1.71812   1.34513 
 H(Fragment=2)         0.47037  -2.22222   1.88863 
 H(Fragment=2)         1.9058   -1.62022   1.88939 
 O(Fragment=2)         1.91926   1.46844  -0.66513 
 H(Fragment=2)         2.80308   1.13288  -0.9022 
 H(Fragment=2)         1.67312   2.09654  -1.3688 
 
 ITRead=  0  0  0  0  0  0  0  0  0  0  0  0  0  0  0  0  0  0  0
 MicOpt= -1 -1 -1 -1 -1 -1 -1 -1 -1 -1 -1 -1 -1 -1 -1 -1 -1 -1 -1
 NAtoms=     19 NQM=       19 NQMF=       0 NMMI=      0 NMMIF=      0
                NMic=       0 NMicF=      0.
                    Isotopes and Nuclear Properties:
 (Nuclear quadrupole moments (NQMom) in fm**2, nuclear magnetic moments (NMagM)
  in nuclear magnetons)

  Atom         1           2           3           4           5           6           7           8           9          10
 IAtWgt=         202          16           1           1          16           1           1          16           1           1
 AtmWgt= 201.9706000  15.9949146   1.0078250   1.0078250  15.9949146   1.0078250   1.0078250  15.9949146   1.0078250   1.0078250
 NucSpn=           0           0           1           1           0           1           1           0           1           1
 AtZEff=  -0.0000000  -0.0000000  -0.0000000  -0.0000000  -0.0000000  -0.0000000  -0.0000000  -0.0000000  -0.0000000  -0.0000000
 NQMom=    0.0000000   0.0000000   0.0000000   0.0000000   0.0000000   0.0000000   0.0000000   0.0000000   0.0000000   0.0000000
 NMagM=    0.0000000   0.0000000   2.7928460   2.7928460   0.0000000   2.7928460   2.7928460   0.0000000   2.7928460   2.7928460
 AtZNuc=  80.0000000   8.0000000   1.0000000   1.0000000   8.0000000   1.0000000   1.0000000   8.0000000   1.0000000   1.0000000

  Atom        11          12          13          14          15          16          17          18          19
 IAtWgt=          16           1           1          16           1           1          16           1           1
 AtmWgt=  15.9949146   1.0078250   1.0078250  15.9949146   1.0078250   1.0078250  15.9949146   1.0078250   1.0078250
 NucSpn=           0           1           1           0           1           1           0           1           1
 AtZEff=  -0.0000000  -0.0000000  -0.0000000  -0.0000000  -0.0000000  -0.0000000  -0.0000000  -0.0000000  -0.0000000
 NQMom=    0.0000000   0.0000000   0.0000000   0.0000000   0.0000000   0.0000000   0.0000000   0.0000000   0.0000000
 NMagM=    0.0000000   2.7928460   2.7928460   0.0000000   2.7928460   2.7928460   0.0000000   2.7928460   2.7928460
 AtZNuc=   8.0000000   1.0000000   1.0000000   8.0000000   1.0000000   1.0000000   8.0000000   1.0000000   1.0000000
 Leave Link  101 at Wed May 11 22:09:38 2022, MaxMem= 67108864000 cpu:               2.4 elap:               0.1
 (Enter /cm/shared/apps/gaussian/intel/EM64T/SSE4_2-enabled/binary//g16/l103.exe)

 GradGradGradGradGradGradGradGradGradGradGradGradGradGradGradGradGradGrad
 Berny optimization.
 Initialization pass.
 Trust Radius=3.00D-01 FncErr=1.00D-07 GrdErr=1.00D-07 EigMax=2.50D+02 EigMin=1.00D-04
 Number of steps in this run=      2 maximum allowed number of steps=      2.
 GradGradGradGradGradGradGradGradGradGradGradGradGradGradGradGradGradGrad

 Leave Link  103 at Wed May 11 22:09:38 2022, MaxMem= 67108864000 cpu:               0.6 elap:               0.0
 (Enter /cm/shared/apps/gaussian/intel/EM64T/SSE4_2-enabled/binary//g16/l202.exe)
                          Input orientation:                          
 ---------------------------------------------------------------------
 Center     Atomic      Atomic             Coordinates (Angstroms)
 Number     Number       Type             X           Y           Z
 ---------------------------------------------------------------------
      1         80           0        0.089018    0.075635    0.080184
      2          8           0       -1.069854    1.896133   -1.009958
      3          1           0       -1.765219    1.779481   -1.682764
      4          1           0       -1.403657    2.573689   -0.393734
      5          8           0       -1.818051   -1.312595    0.610177
      6          1           0       -2.645828   -0.980985    1.003646
      7          1           0       -2.084796   -1.906485   -0.115201
      8          8           0        0.139403    1.798307    1.775878
      9          1           0       -0.134742    1.664906    2.701608
     10          1           0        0.981496    2.287838    1.813341
     11          8           0        0.261559   -1.678682   -1.574602
     12          1           0        0.900246   -2.377020   -1.340979
     13          1           0        0.372316   -1.522679   -2.530272
     14          8           0        1.103276   -1.718116    1.345134
     15          1           0        0.470371   -2.222225    1.888627
     16          1           0        1.905800   -1.620216    1.889387
     17          8           0        1.919257    1.468436   -0.665132
     18          1           0        2.803077    1.132884   -0.902202
     19          1           0        1.673117    2.096545   -1.368800
 ---------------------------------------------------------------------
                    Distance matrix (angstroms):
                    1          2          3          4          5
     1  Hg   0.000000
     2  O    2.417769   0.000000
     3  H    3.073967   0.974581   0.000000
     4  H    2.948381   0.974802   1.556628   0.000000
     5  O    2.417641   3.671590   3.849845   4.035191   0.000000
     6  H    3.073859   3.849169   3.951258   4.016387   0.974678
     7  H    2.948295   4.036162   4.018175   4.540208   0.974696
     8  O    2.417750   3.038545   3.948436   2.772989   3.855930
     9  H    3.073713   3.834530   4.679135   3.466580   4.009130
    10  H    2.948592   3.511764   4.474999   3.262184   4.716798
    11  O    2.417791   3.856266   4.009790   4.716996   3.038430
    12  H    2.948442   4.717065   4.949548   5.542090   3.511289
    13  H    3.073979   4.009923   4.023877   4.949657   3.834614
    14  O    2.417925   4.830295   5.443309   5.265735   3.039533
    15  H    2.948908   5.266399   5.810882   5.632224   2.774660
    16  H    3.074056   5.442925   6.147730   5.809818   3.949440
    17  O    2.417678   3.039180   3.835060   3.512406   4.829909
    18  H    3.073918   3.948893   4.679390   4.475608   5.442654
    19  H    2.948390   2.773594   3.467169   3.262661   5.265628
                    6          7          8          9         10
     6  H    0.000000
     7  H    1.556639   0.000000
     8  O    4.009778   4.716855   0.000000
     9  H    4.023601   4.948935   0.974642   0.000000
    10  H    4.949575   5.542000   0.974764   1.556615   0.000000
    11  O    3.948043   2.772567   4.830123   5.442665   5.265904
    12  H    4.474463   3.261044   5.265647   5.809550   5.631806
    13  H    4.678803   3.466594   5.442989   6.147388   5.810173
    14  O    3.836112   3.511675   3.671488   3.849357   4.035061
    15  H    3.469087   3.262499   4.035707   4.017074   4.539558
    16  H    4.680862   4.474950   3.849590   3.951650   4.016591
    17  O    5.442838   5.265449   3.038951   3.948728   2.773742
    18  H    6.147460   5.809340   3.835370   4.679880   3.467888
    19  H    5.809731   5.631844   3.511442   4.474694   3.262048
                   11         12         13         14         15
    11  O    0.000000
    12  H    0.974770   0.000000
    13  H    0.974633   1.556607   0.000000
    14  O    3.038898   2.773189   3.948578   0.000000
    15  H    3.511837   3.261765   4.475003   0.974720   0.000000
    16  H    3.834862   3.466865   4.679153   0.974598   1.556558
    17  O    3.671437   4.035181   3.849486   3.855011   4.716136
    18  H    3.849200   4.016555   3.951104   4.008496   4.948434
    19  H    4.035739   4.539922   4.017447   4.716121   5.541588
                   16         17         18         19
    16  H    0.000000
    17  O    4.008182   0.000000
    18  H    4.022143   0.974646   0.000000
    19  H    4.948155   0.974810   1.556652   0.000000
 Stoichiometry    H12HgO6(2+)
 Framework group  C1[X(H12HgO6)]
 Deg. of freedom    51
 Full point group                 C1      NOp   1
 Largest Abelian subgroup         C1      NOp   1
 Largest concise Abelian subgroup C1      NOp   1
                         Standard orientation:                         
 ---------------------------------------------------------------------
 Center     Atomic      Atomic             Coordinates (Angstroms)
 Number     Number       Type             X           Y           Z
 ---------------------------------------------------------------------
      1         80           0       -0.000016    0.000119   -0.000002
      2          8           0       -1.663896    1.611959    0.692158
      3          1           0       -1.466911    2.421241    1.198189
      4          1           0       -2.268781    1.882975   -0.022616
      5          8           0        1.663053    1.530391   -0.858755
      6          1           0        1.465428    2.282363   -1.446531
      7          1           0        2.268790    1.874578   -0.177103
      8          8           0       -1.664055   -0.207119   -1.741709
      9          1           0       -1.466778   -0.173526   -2.695586
     10          1           0       -2.268728   -0.961793   -1.619220
     11          8           0        1.664299   -0.021177    1.753656
     12          1           0        2.269409   -0.784202    1.711097
     13          1           0        1.467406    0.112640    2.698767
     14          8           0        1.663138   -1.508912   -0.896164
     15          1           0        2.268220   -1.091367   -1.536172
     16          1           0        1.465662   -2.394457   -1.252047
     17          8           0       -1.662516   -1.405990    1.050769
     18          1           0       -1.464724   -2.248460    1.499164
     19          1           0       -2.267881   -0.922740    1.642594
 ---------------------------------------------------------------------
 Rotational constants (GHZ):           1.3998844           1.0310704           1.0308792
 Leave Link  202 at Wed May 11 22:09:38 2022, MaxMem= 67108864000 cpu:               1.4 elap:               0.1
 (Enter /cm/shared/apps/gaussian/intel/EM64T/SSE4_2-enabled/binary//g16/l301.exe)
 Standard basis: SDDAll (6D, 10F)
 Ernie: Thresh=  0.10000D-02 Tol=  0.10000D-05 Strict=F.
 There are   129 symmetry adapted cartesian basis functions of A   symmetry.
 There are   129 symmetry adapted basis functions of A   symmetry.
   129 basis functions,   227 primitive gaussians,   129 cartesian basis functions
    33 alpha electrons       33 beta electrons
       nuclear repulsion energy       375.6367297318 Hartrees.
 IExCor=    0 DFT=F Ex=HF Corr=None ExCW=0 ScaHFX=  1.000000
 ScaDFX=  1.000000  1.000000  1.000000  1.000000 ScalE2=  1.000000  1.000000
 IRadAn=      5 IRanWt=     -1 IRanGd=            0 ICorTp=0 IEmpDi=  4
 NAtoms=   19 NActive=   19 NUniq=   19 SFac= 1.00D+00 NAtFMM=   60 NAOKFM=F Big=F
 Integral buffers will be    131072 words long.
 Raffenetti 1 integral format.
 Two-electron integral symmetry is turned on.
 Leave Link  301 at Wed May 11 22:09:38 2022, MaxMem= 67108864000 cpu:               1.4 elap:               0.1
 (Enter /cm/shared/apps/gaussian/intel/EM64T/SSE4_2-enabled/binary//g16/l302.exe)
 NPDir=0 NMtPBC=     1 NCelOv=     1 NCel=       1 NClECP=     1 NCelD=      1
         NCelK=      1 NCelE2=     1 NClLst=     1 CellRange=     0.0.
 One-electron integrals computed using PRISM.
 One-electron integral symmetry used in STVInt
   1 Symmetry operations used in ECPInt.
 ECPInt:  NShTT=    2346 NPrTT=    7709 LenC2=    2347 LenP2D=    6287.
 LDataN:  DoStor=T MaxTD1= 7 Len=  274
 NBasis=   129 RedAO= T EigKep=  3.85D-04  NBF=   129
 NBsUse=   129 1.00D-06 EigRej= -1.00D+00 NBFU=   129
 Leave Link  302 at Wed May 11 22:09:38 2022, MaxMem= 67108864000 cpu:               6.7 elap:               0.3
 (Enter /cm/shared/apps/gaussian/intel/EM64T/SSE4_2-enabled/binary//g16/l303.exe)
 DipDrv:  MaxL=1.
 Leave Link  303 at Wed May 11 22:09:38 2022, MaxMem= 67108864000 cpu:               1.6 elap:               0.1
 (Enter /cm/shared/apps/gaussian/intel/EM64T/SSE4_2-enabled/binary//g16/l401.exe)
 ExpMin= 2.00D-02 ExpMax= 4.71D+01 ExpMxC= 4.71D+01 IAcc=3 IRadAn=         5 AccDes= 0.00D+00
 Harris functional with IExCor=  205 and IRadAn=       5 diagonalized for initial guess.
 HarFok:  IExCor=  205 AccDes= 0.00D+00 IRadAn=         5 IDoV= 1 UseB2=F ITyADJ=14
 ICtDFT=  3500011 ScaDFX=  1.000000  1.000000  1.000000  1.000000
 Defaulting to unpruned grid for atomic number  80.
 FoFCou: FMM=F IPFlag=           0 FMFlag=      100000 FMFlg1=           0
         NFxFlg=           0 DoJE=T BraDBF=F KetDBF=T FulRan=T
         wScrn=  0.000000 ICntrl=       500 IOpCl=  0 I1Cent=   200000004 NGrid=           0
         NMat0=    1 NMatS0=      1 NMatT0=    0 NMatD0=    1 NMtDS0=    0 NMtDT0=    0
 Petite list used in FoFCou.
 Harris En= -257.112703289444    
 JPrj=0 DoOrth=F DoCkMO=F.
 Leave Link  401 at Wed May 11 22:09:39 2022, MaxMem= 67108864000 cpu:               9.0 elap:               0.4
 (Enter /cm/shared/apps/gaussian/intel/EM64T/SSE4_2-enabled/binary//g16/l502.exe)
 Integral symmetry usage will be decided dynamically.
 Closed shell SCF:
 Using DIIS extrapolation, IDIIS=  1040.
 NGot= 67108864000 LenX= 67108825298 LenY= 67108808216
 Requested convergence on RMS density matrix=1.00D-08 within 128 cycles.
 Requested convergence on MAX density matrix=1.00D-06.
 Requested convergence on             energy=1.00D-06.
 No special actions if energy rises.
 Fock matrices will be formed incrementally for  20 cycles.

 Cycle   1  Pass 0  IDiag  1:
 FoFJK:  IHMeth= 1 ICntrl=       0 DoSepK=F KAlg= 0 I1Cent=           0 FoldK=F
 IRaf= 990000000 NMat=       1 IRICut=       1 DoRegI=T DoRafI=F ISym2E= 0 IDoP0=0 IntGTp=1.
 FoFCou: FMM=F IPFlag=           0 FMFlag=      100000 FMFlg1=           0
         NFxFlg=           0 DoJE=F BraDBF=F KetDBF=F FulRan=T
         wScrn=  0.000000 ICntrl=         0 IOpCl=  0 I1Cent=           0 NGrid=           0
         NMat0=    1 NMatS0=      1 NMatT0=    0 NMatD0=    1 NMtDS0=    0 NMtDT0=    0
 Symmetry not used in FoFCou.
 E= -253.026873707033    
 DIIS: error= 6.81D-02 at cycle   1 NSaved=   1.
 NSaved= 1 IEnMin= 1 EnMin= -253.026873707033     IErMin= 1 ErrMin= 6.81D-02
 ErrMax= 6.81D-02  0.00D+00 EMaxC= 1.00D-01 BMatC= 5.75D-01 BMatP= 5.75D-01
 IDIUse=3 WtCom= 3.19D-01 WtEn= 6.81D-01
 Coeff-Com:  0.100D+01
 Coeff-En:   0.100D+01
 Coeff:      0.100D+01
 Gap=     0.730 Goal=   None    Shift=    0.000
 GapD=    0.730 DampG=2.000 DampE=0.250 DampFc=0.5000 IDamp=-1.
 Damping current iteration by 5.00D-01
 RMSDP=6.55D-03 MaxDP=1.70D-01              OVMax= 1.34D-01

 Cycle   2  Pass 0  IDiag  1:
 RMSU=  3.27D-03    CP:  1.00D+00
 E= -253.260123494487     Delta-E=       -0.233249787454 Rises=F Damp=T
 DIIS: error= 1.91D-02 at cycle   2 NSaved=   2.
 NSaved= 2 IEnMin= 2 EnMin= -253.260123494487     IErMin= 2 ErrMin= 1.91D-02
 ErrMax= 1.91D-02  0.00D+00 EMaxC= 1.00D-01 BMatC= 3.86D-02 BMatP= 5.75D-01
 IDIUse=3 WtCom= 8.09D-01 WtEn= 1.91D-01
 Coeff-Com: -0.262D+00 0.126D+01
 Coeff-En:   0.000D+00 0.100D+01
 Coeff:     -0.212D+00 0.121D+01
 Gap=     0.565 Goal=   None    Shift=    0.000
 RMSDP=1.97D-03 MaxDP=4.76D-02 DE=-2.33D-01 OVMax= 5.85D-02

 Cycle   3  Pass 0  IDiag  1:
 RMSU=  1.53D-03    CP:  1.00D+00  1.38D+00
 E= -253.459349676760     Delta-E=       -0.199226182273 Rises=F Damp=F
 DIIS: error= 5.46D-03 at cycle   3 NSaved=   3.
 NSaved= 3 IEnMin= 3 EnMin= -253.459349676760     IErMin= 3 ErrMin= 5.46D-03
 ErrMax= 5.46D-03  0.00D+00 EMaxC= 1.00D-01 BMatC= 1.96D-03 BMatP= 3.86D-02
 IDIUse=3 WtCom= 9.45D-01 WtEn= 5.46D-02
 Coeff-Com:  0.484D-01-0.194D+00 0.115D+01
 Coeff-En:   0.000D+00 0.000D+00 0.100D+01
 Coeff:      0.458D-01-0.183D+00 0.114D+01
 Gap=     0.552 Goal=   None    Shift=    0.000
 RMSDP=6.36D-04 MaxDP=2.13D-02 DE=-1.99D-01 OVMax= 1.59D-02

 Cycle   4  Pass 0  IDiag  1:
 RMSU=  3.85D-04    CP:  9.95D-01  1.33D+00  1.30D+00
 E= -253.461439994648     Delta-E=       -0.002090317888 Rises=F Damp=F
 DIIS: error= 1.48D-03 at cycle   4 NSaved=   4.
 NSaved= 4 IEnMin= 4 EnMin= -253.461439994648     IErMin= 4 ErrMin= 1.48D-03
 ErrMax= 1.48D-03  0.00D+00 EMaxC= 1.00D-01 BMatC= 2.57D-04 BMatP= 1.96D-03
 IDIUse=3 WtCom= 9.85D-01 WtEn= 1.48D-02
 Coeff-Com:  0.261D-01-0.120D+00 0.317D+00 0.777D+00
 Coeff-En:   0.000D+00 0.000D+00 0.000D+00 0.100D+01
 Coeff:      0.258D-01-0.119D+00 0.312D+00 0.781D+00
 Gap=     0.555 Goal=   None    Shift=    0.000
 RMSDP=1.50D-04 MaxDP=3.54D-03 DE=-2.09D-03 OVMax= 4.77D-03

 Cycle   5  Pass 0  IDiag  1:
 RMSU=  9.77D-05    CP:  9.95D-01  1.35D+00  1.36D+00  9.08D-01
 E= -253.461702768158     Delta-E=       -0.000262773510 Rises=F Damp=F
 DIIS: error= 2.85D-04 at cycle   5 NSaved=   5.
 NSaved= 5 IEnMin= 5 EnMin= -253.461702768158     IErMin= 5 ErrMin= 2.85D-04
 ErrMax= 2.85D-04  0.00D+00 EMaxC= 1.00D-01 BMatC= 7.55D-06 BMatP= 2.57D-04
 IDIUse=3 WtCom= 9.97D-01 WtEn= 2.85D-03
 Coeff-Com: -0.113D-01 0.404D-01-0.117D+00-0.242D+00 0.133D+01
 Coeff-En:   0.000D+00 0.000D+00 0.000D+00 0.000D+00 0.100D+01
 Coeff:     -0.112D-01 0.403D-01-0.117D+00-0.241D+00 0.133D+01
 Gap=     0.555 Goal=   None    Shift=    0.000
 RMSDP=4.77D-05 MaxDP=1.04D-03 DE=-2.63D-04 OVMax= 2.11D-03

 Cycle   6  Pass 0  IDiag  1:
 RMSU=  2.09D-05    CP:  9.95D-01  1.35D+00  1.37D+00  9.47D-01  1.29D+00
 E= -253.461721285535     Delta-E=       -0.000018517377 Rises=F Damp=F
 DIIS: error= 5.23D-05 at cycle   6 NSaved=   6.
 NSaved= 6 IEnMin= 6 EnMin= -253.461721285535     IErMin= 6 ErrMin= 5.23D-05
 ErrMax= 5.23D-05  0.00D+00 EMaxC= 1.00D-01 BMatC= 3.03D-07 BMatP= 7.55D-06
 IDIUse=1 WtCom= 1.00D+00 WtEn= 0.00D+00
 Coeff-Com:  0.286D-02-0.842D-02 0.206D-01 0.603D-01-0.428D+00 0.135D+01
 Coeff:      0.286D-02-0.842D-02 0.206D-01 0.603D-01-0.428D+00 0.135D+01
 Gap=     0.555 Goal=   None    Shift=    0.000
 RMSDP=1.01D-05 MaxDP=2.67D-04 DE=-1.85D-05 OVMax= 3.67D-04

 Cycle   7  Pass 0  IDiag  1:
 RMSU=  3.84D-06    CP:  9.95D-01  1.35D+00  1.38D+00  9.52D-01  1.32D+00
                    CP:  1.36D+00
 E= -253.461721994700     Delta-E=       -0.000000709165 Rises=F Damp=F
 DIIS: error= 7.62D-06 at cycle   7 NSaved=   7.
 NSaved= 7 IEnMin= 7 EnMin= -253.461721994700     IErMin= 7 ErrMin= 7.62D-06
 ErrMax= 7.62D-06  0.00D+00 EMaxC= 1.00D-01 BMatC= 8.51D-09 BMatP= 3.03D-07
 IDIUse=1 WtCom= 1.00D+00 WtEn= 0.00D+00
 Coeff-Com: -0.511D-03 0.126D-02-0.151D-02-0.125D-01 0.862D-01-0.380D+00
 Coeff-Com:  0.131D+01
 Coeff:     -0.511D-03 0.126D-02-0.151D-02-0.125D-01 0.862D-01-0.380D+00
 Coeff:      0.131D+01
 Gap=     0.555 Goal=   None    Shift=    0.000
 RMSDP=1.99D-06 MaxDP=8.38D-05 DE=-7.09D-07 OVMax= 7.75D-05

 Initial convergence to 1.0D-05 achieved.  Increase integral accuracy.
 Cycle   8  Pass 1  IDiag  1:
 E= -253.461722014006     Delta-E=       -0.000000019306 Rises=F Damp=F
 DIIS: error= 1.68D-06 at cycle   1 NSaved=   1.
 NSaved= 1 IEnMin= 1 EnMin= -253.461722014006     IErMin= 1 ErrMin= 1.68D-06
 ErrMax= 1.68D-06  0.00D+00 EMaxC= 1.00D-01 BMatC= 2.62D-10 BMatP= 2.62D-10
 IDIUse=1 WtCom= 1.00D+00 WtEn= 0.00D+00
 Coeff-Com:  0.100D+01
 Coeff:      0.100D+01
 Gap=     0.555 Goal=   None    Shift=    0.000
 RMSDP=1.99D-06 MaxDP=8.38D-05 DE=-1.93D-08 OVMax= 6.98D-06

 Cycle   9  Pass 1  IDiag  1:
 RMSU=  2.79D-07    CP:  1.00D+00
 E= -253.461722014590     Delta-E=       -0.000000000584 Rises=F Damp=F
 DIIS: error= 8.82D-07 at cycle   2 NSaved=   2.
 NSaved= 2 IEnMin= 2 EnMin= -253.461722014590     IErMin= 2 ErrMin= 8.82D-07
 ErrMax= 8.82D-07  0.00D+00 EMaxC= 1.00D-01 BMatC= 4.66D-11 BMatP= 2.62D-10
 IDIUse=1 WtCom= 1.00D+00 WtEn= 0.00D+00
 Coeff-Com: -0.703D-01 0.107D+01
 Coeff:     -0.703D-01 0.107D+01
 Gap=     0.555 Goal=   None    Shift=    0.000
 RMSDP=1.30D-07 MaxDP=5.57D-06 DE=-5.84D-10 OVMax= 3.66D-06

 Cycle  10  Pass 1  IDiag  1:
 RMSU=  7.64D-08    CP:  1.00D+00  1.38D+00
 E= -253.461722014714     Delta-E=       -0.000000000125 Rises=F Damp=F
 DIIS: error= 3.83D-07 at cycle   3 NSaved=   3.
 NSaved= 3 IEnMin= 3 EnMin= -253.461722014714     IErMin= 3 ErrMin= 3.83D-07
 ErrMax= 3.83D-07  0.00D+00 EMaxC= 1.00D-01 BMatC= 1.03D-11 BMatP= 4.66D-11
 IDIUse=1 WtCom= 1.00D+00 WtEn= 0.00D+00
 Coeff-Com: -0.225D+00 0.294D-01 0.120D+01
 Coeff:     -0.225D+00 0.294D-01 0.120D+01
 Gap=     0.555 Goal=   None    Shift=    0.000
 RMSDP=9.06D-08 MaxDP=3.86D-06 DE=-1.25D-10 OVMax= 2.69D-06

 Cycle  11  Pass 1  IDiag  1:
 RMSU=  1.93D-08    CP:  1.00D+00  1.68D+00  1.33D+00
 E= -253.461722014746     Delta-E=       -0.000000000032 Rises=F Damp=F
 DIIS: error= 5.15D-08 at cycle   4 NSaved=   4.
 NSaved= 4 IEnMin= 4 EnMin= -253.461722014746     IErMin= 4 ErrMin= 5.15D-08
 ErrMax= 5.15D-08  0.00D+00 EMaxC= 1.00D-01 BMatC= 2.75D-13 BMatP= 1.03D-11
 IDIUse=1 WtCom= 1.00D+00 WtEn= 0.00D+00
 Coeff-Com:  0.126D-01-0.439D-01-0.314D-01 0.106D+01
 Coeff:      0.126D-01-0.439D-01-0.314D-01 0.106D+01
 Gap=     0.555 Goal=   None    Shift=    0.000
 RMSDP=1.05D-08 MaxDP=4.15D-07 DE=-3.16D-11 OVMax= 3.94D-07

 Cycle  12  Pass 1  IDiag  1:
 RMSU=  3.81D-09    CP:  1.00D+00  1.70D+00  1.40D+00  1.30D+00
 E= -253.461722014741     Delta-E=        0.000000000005 Rises=F Damp=F
 DIIS: error= 1.76D-08 at cycle   5 NSaved=   5.
 NSaved= 5 IEnMin= 4 EnMin= -253.461722014746     IErMin= 5 ErrMin= 1.76D-08
 ErrMax= 1.76D-08  0.00D+00 EMaxC= 1.00D-01 BMatC= 5.28D-14 BMatP= 2.75D-13
 IDIUse=1 WtCom= 1.00D+00 WtEn= 0.00D+00
 Coeff-Com:  0.376D-01-0.177D-01-0.187D+00 0.305D+00 0.861D+00
 Coeff:      0.376D-01-0.177D-01-0.187D+00 0.305D+00 0.861D+00
 Gap=     0.555 Goal=   None    Shift=    0.000
 RMSDP=3.37D-09 MaxDP=1.28D-07 DE= 4.89D-12 OVMax= 1.16D-07

 SCF Done:  E(RHF) =  -253.461722015     A.U. after   12 cycles
            NFock= 12  Conv=0.34D-08     -V/T= 2.9179
 KE= 1.321531603719D+02 PE=-1.296167510344D+03 EE= 5.349158982256D+02
 Leave Link  502 at Wed May 11 22:09:41 2022, MaxMem= 67108864000 cpu:              56.3 elap:               2.0
 (Enter /cm/shared/apps/gaussian/intel/EM64T/SSE4_2-enabled/binary//g16/l801.exe)
 Range of M.O.s used for correlation:     1   129
 NBasis=   129 NAE=    33 NBE=    33 NFC=     0 NFV=     0
 NROrb=    129 NOA=    33 NOB=    33 NVA=    96 NVB=    96

 **** Warning!!: The largest alpha MO coefficient is  0.28631499D+02

 Leave Link  801 at Wed May 11 22:09:41 2022, MaxMem= 67108864000 cpu:               0.5 elap:               0.0
 (Enter /cm/shared/apps/gaussian/intel/EM64T/SSE4_2-enabled/binary//g16/l906.exe)
 FulOut=F Deriv=T AODrv=T NAtomX=    19
   MMem=           0  MDisk=          33 MDiskD=          33
  W3Min=      549153 MinDsk=     1693460 NBas6D=         129
 NBas2D=        8499    NTT=        8385    LW2=     3308096
    MDV= 67108611753 MDiskM=     7225087 NBas2p=        8427
 Disk-based method using ON**2 memory for 33 occupieds at a time.
 Permanent disk used for amplitudes=    12443904 words.
 Estimated scratch disk usage=   136941355 words.
 IMap=   1   2   3   4   5   6   7   8   9  10  11  12  13  14  15  16  17  18  19  20
 IMap=  21  22  23  24  25  26  27  28  29  30  31  32  33
 Actual    scratch disk usage=   125244715 words.
 JobTyp=1 Pass  1:  I=   1 to  33 NPSUse= 28 ParTrn=T ParDer=T DoDerP=T.
 (rs|ai) integrals will be sorted in core.
 Spin components of T(2) and E(2):
     alpha-alpha T2 =       0.3468066006D-01 E2=     -0.1123734354D+00
     alpha-beta  T2 =       0.2069459914D+00 E2=     -0.6841539447D+00
     beta-beta   T2 =       0.3468066006D-01 E2=     -0.1123734354D+00
 The integrals were generated   1 times.
 ANorm=    0.1129737718D+01
 E2 =    -0.9089008156D+00 EUMP2 =    -0.25437062283031D+03
 Leave Link  906 at Wed May 11 22:09:57 2022, MaxMem= 67108864000 cpu:             447.4 elap:              16.0
 (Enter /cm/shared/apps/gaussian/intel/EM64T/SSE4_2-enabled/binary//g16/l1101.exe)
 Using compressed Sx but separate Hx and Fx, NAtomX=    19.
 Will process     20 centers per pass.
   1 Symmetry operations used in ECPInt.
 ECPInt:  NShTT=    2346 NPrTT=    7709 LenC2=    2347 LenP2D=    6287.
 LDataN:  DoStor=T MaxTD1= 8 Len=  415
 Leave Link 1101 at Wed May 11 22:09:57 2022, MaxMem= 67108864000 cpu:              12.5 elap:               0.5
 (Enter /cm/shared/apps/gaussian/intel/EM64T/SSE4_2-enabled/binary//g16/l1102.exe)
 Leave Link 1102 at Wed May 11 22:09:57 2022, MaxMem= 67108864000 cpu:               0.6 elap:               0.0
 (Enter /cm/shared/apps/gaussian/intel/EM64T/SSE4_2-enabled/binary//g16/l1110.exe)
 Forming Gx(P) for the SCF density, NAtomX=    19.
 Integral derivatives from FoFJK, PRISM(SPDF).
 Do as many integral derivatives as possible in FoFJK.
 G2DrvN: MDV=   67108862420.
 G2DrvN: will do    20 centers at a time, making    1 passes.
 Calling FoFCou, ICntrl=  3107 FMM=F I1Cent=   0 AccDes= 0.00D+00.
 FoFJK:  IHMeth= 1 ICntrl=    3107 DoSepK=F KAlg= 0 I1Cent=           0 FoldK=F
 IRaf=         0 NMat=       1 IRICut=       1 DoRegI=T DoRafI=F ISym2E= 0 IDoP0=0 IntGTp=1.
 FoFCou: FMM=F IPFlag=           0 FMFlag=      100000 FMFlg1=           0
         NFxFlg=           0 DoJE=F BraDBF=F KetDBF=F FulRan=T
         wScrn=  0.000000 ICntrl=      3107 IOpCl=  0 I1Cent=           0 NGrid=           0
         NMat0=    1 NMatS0=      1 NMatT0=    0 NMatD0=    1 NMtDS0=    0 NMtDT0=    0
 Symmetry not used in FoFCou.
 End of G2Drv F.D. properties file   721 does not exist.
 End of G2Drv F.D. properties file   722 does not exist.
 End of G2Drv F.D. properties file   788 does not exist.
 Leave Link 1110 at Wed May 11 22:09:58 2022, MaxMem= 67108864000 cpu:              14.2 elap:               0.5
 (Enter /cm/shared/apps/gaussian/intel/EM64T/SSE4_2-enabled/binary//g16/l1002.exe)
 Minotr:  Closed shell wavefunction.
          IDoAtm=1111111111111111111
          Direct CPHF calculation.
          Differentiating once with respect to electric field.
                with respect to dipole field.
          Differentiating once with respect to nuclear coordinates.
          Requested convergence is 1.0D-08 RMS, and 1.0D-07 maximum.
          Secondary convergence is 1.0D-12 RMS, and 1.0D-12 maximum.
          NewPWx=T KeepS1=T KeepF1=T KeepIn=T MapXYZ=F SortEE=F KeepMc=T.
 Keep R1 ints in memory in canonical form, NReq=41195615.
 FoFCou: FMM=F IPFlag=           0 FMFlag=           0 FMFlg1=           0
         NFxFlg=           0 DoJE=F BraDBF=F KetDBF=F FulRan=T
         wScrn=  0.000000 ICntrl=       600 IOpCl=  0 I1Cent=           0 NGrid=           0
         NMat0=    1 NMatS0=   8385 NMatT0=    0 NMatD0=    1 NMtDS0=    0 NMtDT0=    0
 Symmetry not used in FoFCou.
 Two-electron integral symmetry not used.
          MDV=   67108864000 using IRadAn=       1.
          Solving linear equations simultaneously, MaxMat=       0.
          There are    60 degrees of freedom in the 1st order CPHF.  IDoFFX=6 NUNeed=    60.
     57 vectors produced by pass  0 Test12= 5.28D-15 1.67D-09 XBig12= 9.20D+00 9.62D-01.
 AX will form    57 AO Fock derivatives at one time.
     57 vectors produced by pass  1 Test12= 5.28D-15 1.67D-09 XBig12= 1.37D-01 1.02D-01.
     57 vectors produced by pass  2 Test12= 5.28D-15 1.67D-09 XBig12= 1.53D-03 7.90D-03.
     57 vectors produced by pass  3 Test12= 5.28D-15 1.67D-09 XBig12= 9.46D-06 5.38D-04.
     57 vectors produced by pass  4 Test12= 5.28D-15 1.67D-09 XBig12= 7.45D-08 3.74D-05.
     57 vectors produced by pass  5 Test12= 5.28D-15 1.67D-09 XBig12= 3.01D-10 2.39D-06.
     33 vectors produced by pass  6 Test12= 5.28D-15 1.67D-09 XBig12= 1.37D-12 1.50D-07.
      3 vectors produced by pass  7 Test12= 5.28D-15 1.67D-09 XBig12= 5.89D-15 9.51D-09.
 InvSVY:  IOpt=1 It=  1 EMax= 1.33D-15
 Solved reduced A of dimension   378 with    60 vectors.
 FullF1:  Do perturbations      1 to      60.
 Saving first derivative matrices.
 End of Minotr F.D. properties file   721 does not exist.
 End of Minotr F.D. properties file   722 does not exist.
 End of Minotr F.D. properties file   788 does not exist.
 Leave Link 1002 at Wed May 11 22:10:00 2022, MaxMem= 67108864000 cpu:              51.2 elap:               1.9
 (Enter /cm/shared/apps/gaussian/intel/EM64T/SSE4_2-enabled/binary//g16/l811.exe)
 MDV= 67108864000.
 Form MO integral derivatives with frozen-active canonical formalism.
 MOERI=1 MOERIx=1 NAtoms=    19 NAtomX=    19.
 Discarding MO integrals.
 MO basis two electron integral derivatives will not be stored on disk.
 IAlg= 3 DoFC=T DoPWx=T Debug=F.
 Reordered first order wavefunction length =     20072448
 In DefCFB: NBatch=  1 ICI= 33 ICA= 96 LFMax= 96
            Large arrays: LIAPS=   210874752 LIARS=   111567456 words.
 In StABat: MaxSiz= 39 MinSiz= 13 NAtomB=  4
 DoIAMN: NPSUse= 28.
 Leave Link  811 at Wed May 11 22:10:51 2022, MaxMem= 67108864000 cpu:            1408.6 elap:              50.6
 (Enter /cm/shared/apps/gaussian/intel/EM64T/SSE4_2-enabled/binary//g16/l804.exe)
 Closed-shell transformation, MDV= 67108864000 ITran=4 ISComp=1.
 Semi-Direct transformation.
 ModeAB=           2 MOrb=            33 LenV=   67108303306
 LASXX=     28702344 LTotXX=    28702344 LenRXX=    28702344
 LTotAB=    29490417 MaxLAS=    35694945 LenRXY=    35694945
 NonZer=    57404688 LenScr=    86876160 LnRSAI=           0
 LnScr1=           0 LExtra=           0 Total=    151273449
 MaxDsk=          -1 SrtSym=           F ITran=            4
 DoSDTr:  NPSUse= 28
 JobTyp=0 Pass  1:  I=   1 to  33.
 (rs|ai) integrals will be sorted in core.
 Complete sort for first half transformation.
 First half transformation complete.
 Begin second half transformation for I=  10.
 Begin second half transformation for I=  20.
 Begin second half transformation for I=  30.
 Begin second half transformation for I=  10.
 Begin second half transformation for I=  20.
 Begin second half transformation for I=  30.
 Complete sort for second half transformation.
 Second half transformation complete.
 SymMOI:  orbitals are not symmetric.
 Spin components of T(2) and E(2):
     alpha-alpha T2 =       0.3468066006D-01 E2=     -0.1123734354D+00
     alpha-beta  T2 =       0.2069459914D+00 E2=     -0.6841539447D+00
     beta-beta   T2 =       0.3468066006D-01 E2=     -0.1123734354D+00
 ANorm=    0.1597690403D+01
 E2 =    -0.9089008156D+00 EUMP2 =    -0.25437062283031D+03
 Leave Link  804 at Wed May 11 22:10:58 2022, MaxMem= 67108864000 cpu:             197.9 elap:               7.1
 (Enter /cm/shared/apps/gaussian/intel/EM64T/SSE4_2-enabled/binary//g16/l1002.exe)
 Minotr:  Closed shell wavefunction.
          Computing MP2/KS-MP2 derivatives.
          Using Z-Vector for PSCF gradient.
          Skipping F1 and S1 gradient terms here.
          IDoAtm=1111111111111111111
          Using MO integrals in the linear equations.
          Forming densities via direct SCF.
          Differentiating once with respect to electric field.
                with respect to dipole field.
          Differentiating once with respect to nuclear coordinates.
          Requested convergence is 1.0D-10 RMS, and 1.0D-09 maximum.
          NewPWx=F KeepS1=T KeepF1=T KeepIn=T MapXYZ=F SortEE=F KeepMc=T.
          MDV=   67108864000 using IRadAn=       5.
          Solving linear equations separately, MaxMat=       0.
          There are     1 degrees of freedom in the 1st order CPHF.  IDoFFX=0 NUNeed=     1.
 FoFJK:  IHMeth= 1 ICntrl=       0 DoSepK=F KAlg= 0 I1Cent=           0 FoldK=F
 IRaf=         0 NMat=       1 IRICut=       1 DoRegI=T DoRafI=F ISym2E= 0 IDoP0=0 IntGTp=1.
 FoFCou: FMM=F IPFlag=           0 FMFlag=      100000 FMFlg1=           0
         NFxFlg=           0 DoJE=F BraDBF=F KetDBF=F FulRan=T
         wScrn=  0.000000 ICntrl=         0 IOpCl=  0 I1Cent=           0 NGrid=           0
         NMat0=    1 NMatS0=      1 NMatT0=    0 NMatD0=    1 NMtDS0=    0 NMtDT0=    0
 Symmetry not used in FoFCou.
 LinEq1:  Iter=  0 NonCon=     1 RMS=6.12D-03 Max=9.71D-02 NDo=     1
 LinEq1:  Iter=  1 NonCon=     1 RMS=1.33D-03 Max=1.39D-02 NDo=     1
 LinEq1:  Iter=  2 NonCon=     1 RMS=3.73D-04 Max=4.76D-03 NDo=     1
 LinEq1:  Iter=  3 NonCon=     1 RMS=1.07D-04 Max=1.53D-03 NDo=     1
 LinEq1:  Iter=  4 NonCon=     1 RMS=2.71D-05 Max=4.07D-04 NDo=     1
 LinEq1:  Iter=  5 NonCon=     1 RMS=3.12D-06 Max=6.09D-05 NDo=     1
 LinEq1:  Iter=  6 NonCon=     1 RMS=4.05D-07 Max=5.92D-06 NDo=     1
 LinEq1:  Iter=  7 NonCon=     1 RMS=5.88D-08 Max=1.23D-06 NDo=     1
 LinEq1:  Iter=  8 NonCon=     1 RMS=8.00D-09 Max=1.12D-07 NDo=     1
 LinEq1:  Iter=  9 NonCon=     1 RMS=2.21D-09 Max=1.92D-08 NDo=     1
 LinEq1:  Iter= 10 NonCon=     1 RMS=6.66D-10 Max=8.02D-09 NDo=     1
 LinEq1:  Iter= 11 NonCon=     1 RMS=9.36D-11 Max=1.08D-09 NDo=     1
 LinEq1:  Iter= 12 NonCon=     0 RMS=1.06D-11 Max=1.13D-10 NDo=     1
 Linear equations converged to 1.000D-10 1.000D-09 after    12 iterations.
 End of Minotr F.D. properties file   721 does not exist.
 End of Minotr F.D. properties file   722 does not exist.
 End of Minotr F.D. properties file   788 does not exist.
 Leave Link 1002 at Wed May 11 22:11:00 2022, MaxMem= 67108864000 cpu:              60.4 elap:               2.2
 (Enter /cm/shared/apps/gaussian/intel/EM64T/SSE4_2-enabled/binary//g16/l1102.exe)
 Use density number 2.
 Symmetrizing basis deriv contribution to polar:
 IMax=3 JMax=2 DiffMx= 0.00D+00
 Leave Link 1102 at Wed May 11 22:11:00 2022, MaxMem= 67108864000 cpu:               0.9 elap:               0.1
 (Enter /cm/shared/apps/gaussian/intel/EM64T/SSE4_2-enabled/binary//g16/l1110.exe)
 Forming Gx(P) for generalized density number  2 NAtomX=    19.
 Integral derivatives from FoFJK, PRISM(SPDF).
 Do as many integral derivatives as possible in FoFJK.
 G2DrvN: MDV=   67108862420.
 G2DrvN: will do    20 centers at a time, making    1 passes.
 Calling FoFCou, ICntrl=  3107 FMM=F I1Cent=   0 AccDes= 0.00D+00.
 FoFJK:  IHMeth= 1 ICntrl=    3107 DoSepK=F KAlg= 0 I1Cent=           0 FoldK=F
 IRaf=         0 NMat=       1 IRICut=       1 DoRegI=T DoRafI=F ISym2E= 0 IDoP0=0 IntGTp=1.
 FoFCou: FMM=F IPFlag=           0 FMFlag=      100000 FMFlg1=           0
         NFxFlg=           0 DoJE=F BraDBF=F KetDBF=F FulRan=T
         wScrn=  0.000000 ICntrl=      3107 IOpCl=  0 I1Cent=           0 NGrid=           0
         NMat0=    1 NMatS0=      1 NMatT0=    0 NMatD0=    1 NMtDS0=    0 NMtDT0=    0
 Symmetry not used in FoFCou.
 End of G2Drv F.D. properties file   721 does not exist.
 End of G2Drv F.D. properties file   722 does not exist.
 End of G2Drv F.D. properties file   788 does not exist.
 Leave Link 1110 at Wed May 11 22:11:01 2022, MaxMem= 67108864000 cpu:              14.7 elap:               0.6
 (Enter /cm/shared/apps/gaussian/intel/EM64T/SSE4_2-enabled/binary//g16/l1112.exe)
 MP22nd: MDV=   67108864000
 This link is doing NAtomX=    19 total of    60 degrees of freedom.
 Using ON3 I/O method in MakUI.
 Using Ix for Sx.
 Using OV2 memory method for fx*t*t/D, MaxI=    33 DoOO2=F NP=  28.
 R2 and R3 integrals will be kept in memory, NReq=    71415045.
 FoFCou: FMM=F IPFlag=           0 FMFlag=           0 FMFlg1=           0
         NFxFlg=           0 DoJE=F BraDBF=F KetDBF=F FulRan=T
         wScrn=  0.000000 ICntrl=       600 IOpCl=  0 I1Cent=           0 NGrid=           0
         NMat0=    1 NMatS0=      1 NMatT0=    0 NMatD0=    1 NMtDS0=    0 NMtDT0=    0
 Symmetry not used in FoFCou.
 DD1Dir will call FoFMem   1 times, MxPair=      1122
 NAB=   561 NAA=     0 NBB=     0.
 Symmetry is being used.
 FoFJK:  IHMeth= 1 ICntrl=       0 DoSepK=F KAlg= 0 I1Cent=           0 FoldK=F
 IRaf=         0 NMat=      60 IRICut=     150 DoRegI=T DoRafI=T ISym2E= 2 IDoP0=0 IntGTp=1.
 Discarding MO integrals.
 Leave Link 1112 at Wed May 11 22:11:28 2022, MaxMem= 67108864000 cpu:             760.3 elap:              27.2
 (Enter /cm/shared/apps/gaussian/intel/EM64T/SSE4_2-enabled/binary//g16/l601.exe)
 Copying SCF densities to generalized density rwf, IOpCl= 0 IROHF=0.

 **********************************************************************

            Population analysis using the SCF density.

 **********************************************************************

 Orbital symmetries:
       Occupied  (A) (A) (A) (A) (A) (A) (A) (A) (A) (A) (A) (A)
                 (A) (A) (A) (A) (A) (A) (A) (A) (A) (A) (A) (A)
                 (A) (A) (A) (A) (A) (A) (A) (A) (A)
       Virtual   (A) (A) (A) (A) (A) (A) (A) (A) (A) (A) (A) (A)
                 (A) (A) (A) (A) (A) (A) (A) (A) (A) (A) (A) (A)
                 (A) (A) (A) (A) (A) (A) (A) (A) (A) (A) (A) (A)
                 (A) (A) (A) (A) (A) (A) (A) (A) (A) (A) (A) (A)
                 (A) (A) (A) (A) (A) (A) (A) (A) (A) (A) (A) (A)
                 (A) (A) (A) (A) (A) (A) (A) (A) (A) (A) (A) (A)
                 (A) (A) (A) (A) (A) (A) (A) (A) (A) (A) (A) (A)
                 (A) (A) (A) (A) (A) (A) (A) (A) (A) (A) (A) (A)
 The electronic state is 1-A.
 Alpha  occ. eigenvalues --   -5.38948  -3.38805  -3.38804  -3.38605  -1.68558
 Alpha  occ. eigenvalues --   -1.68355  -1.68004  -1.68004  -1.67969  -1.67968
 Alpha  occ. eigenvalues --   -1.04193  -1.03509  -1.03417  -1.03416  -1.02919
 Alpha  occ. eigenvalues --   -1.02918  -1.00992  -1.00991  -0.96715  -0.95942
 Alpha  occ. eigenvalues --   -0.95941  -0.93545  -0.92473  -0.90850  -0.90850
 Alpha  occ. eigenvalues --   -0.86247  -0.86245  -0.83803  -0.83472  -0.83471
 Alpha  occ. eigenvalues --   -0.82711  -0.80244  -0.80243
 Alpha virt. eigenvalues --   -0.24712  -0.17086  -0.17085  -0.16291  -0.15203
 Alpha virt. eigenvalues --   -0.10943  -0.10943  -0.09037  -0.08260  -0.08259
 Alpha virt. eigenvalues --   -0.04083  -0.04081  -0.03255  -0.02916  -0.02502
 Alpha virt. eigenvalues --   -0.02501  -0.02031   0.00719   0.01246   0.01248
 Alpha virt. eigenvalues --    0.02710   0.02904   0.02906   0.03956   0.04896
 Alpha virt. eigenvalues --    0.04897   0.07676   0.08200   0.10354   0.10355
 Alpha virt. eigenvalues --    0.12093   0.12097   0.12226   0.12231   0.15290
 Alpha virt. eigenvalues --    0.16580   0.18595   0.18597   0.19501   0.20576
 Alpha virt. eigenvalues --    0.20577   0.25351   0.27289   0.27293   0.39774
 Alpha virt. eigenvalues --    0.67343   0.67347   0.74693   0.81747   0.81754
 Alpha virt. eigenvalues --    1.01923   1.04519   1.04525   1.06347   1.06990
 Alpha virt. eigenvalues --    1.06998   1.08174   1.12067   1.12074   1.13202
 Alpha virt. eigenvalues --    1.13864   1.13868   1.15912   1.15918   1.17029
 Alpha virt. eigenvalues --    1.18462   1.18465   1.19843   1.20056   1.23527
 Alpha virt. eigenvalues --    1.23536   1.26448   1.26455   1.27808   1.31202
 Alpha virt. eigenvalues --    1.31219   1.35520   1.36478   1.36956   1.36964
 Alpha virt. eigenvalues --    1.48906   1.48912   1.55473   1.56675   2.25227
 Alpha virt. eigenvalues --    2.25239   2.58144   2.58186   2.58928   2.59986
 Alpha virt. eigenvalues --    4.28742  15.51621  41.71676  41.71682  41.84812
 Alpha virt. eigenvalues --   81.49770
          Condensed to atoms (all electrons):
               1          2          3          4          5          6
     1  Hg  18.392272   0.047432  -0.004935  -0.002869   0.047425  -0.004938
     2  O    0.047432   6.415795   0.255996   0.251312  -0.006970   0.000146
     3  H   -0.004935   0.255996   0.244797  -0.014760   0.000146  -0.000012
     4  H   -0.002869   0.251312  -0.014760   0.240039   0.000023  -0.000003
     5  O    0.047425  -0.006970   0.000146   0.000023   6.415797   0.256001
     6  H   -0.004938   0.000146  -0.000012  -0.000003   0.256001   0.244782
     7  H   -0.002866   0.000023  -0.000003  -0.000000   0.251310  -0.014754
     8  O    0.047437  -0.014623   0.000380   0.003005  -0.003220   0.000162
     9  H   -0.004932   0.000679  -0.000001  -0.000028   0.000162  -0.000004
    10  H   -0.002867   0.000395  -0.000002   0.000005   0.000048   0.000000
    11  O    0.047428  -0.003219   0.000162   0.000048  -0.014632   0.000379
    12  H   -0.002868   0.000048   0.000000   0.000000   0.000395  -0.000002
    13  H   -0.004933   0.000162  -0.000004   0.000000   0.000679  -0.000001
    14  O    0.047383  -0.000505  -0.000001  -0.000021  -0.014591   0.000679
    15  H   -0.002865  -0.000021   0.000000   0.000000   0.002999  -0.000028
    16  H   -0.004940  -0.000001   0.000000   0.000000   0.000379  -0.000001
    17  O    0.047403  -0.014607   0.000678   0.000395  -0.000505  -0.000001
    18  H   -0.004938   0.000379  -0.000001  -0.000002  -0.000001   0.000000
    19  H   -0.002865   0.003006  -0.000028   0.000005  -0.000021   0.000000
               7          8          9         10         11         12
     1  Hg  -0.002866   0.047437  -0.004932  -0.002867   0.047428  -0.002868
     2  O    0.000023  -0.014623   0.000679   0.000395  -0.003219   0.000048
     3  H   -0.000003   0.000380  -0.000001  -0.000002   0.000162   0.000000
     4  H   -0.000000   0.003005  -0.000028   0.000005   0.000048   0.000000
     5  O    0.251310  -0.003220   0.000162   0.000048  -0.014632   0.000395
     6  H   -0.014754   0.000162  -0.000004   0.000000   0.000379  -0.000002
     7  H    0.240015   0.000048   0.000000   0.000000   0.003008   0.000005
     8  O    0.000048   6.415795   0.255989   0.251312  -0.000505  -0.000021
     9  H    0.000000   0.255989   0.244827  -0.014763  -0.000001   0.000000
    10  H    0.000000   0.251312  -0.014763   0.240031  -0.000021   0.000000
    11  O    0.003008  -0.000505  -0.000001  -0.000021   6.415831   0.251306
    12  H    0.000005  -0.000021   0.000000   0.000000   0.251306   0.240052
    13  H   -0.000028  -0.000001   0.000000   0.000000   0.255997  -0.014761
    14  O    0.000393  -0.006974   0.000145   0.000023  -0.014613   0.003006
    15  H    0.000005   0.000023  -0.000003  -0.000000   0.000393   0.000005
    16  H   -0.000002   0.000146  -0.000012  -0.000003   0.000679  -0.000028
    17  O   -0.000021  -0.014611   0.000379   0.003004  -0.006973   0.000023
    18  H    0.000000   0.000679  -0.000001  -0.000028   0.000146  -0.000003
    19  H    0.000000   0.000394  -0.000002   0.000005   0.000023  -0.000000
              13         14         15         16         17         18
     1  Hg  -0.004933   0.047383  -0.002865  -0.004940   0.047403  -0.004938
     2  O    0.000162  -0.000505  -0.000021  -0.000001  -0.014607   0.000379
     3  H   -0.000004  -0.000001   0.000000   0.000000   0.000678  -0.000001
     4  H    0.000000  -0.000021   0.000000   0.000000   0.000395  -0.000002
     5  O    0.000679  -0.014591   0.002999   0.000379  -0.000505  -0.000001
     6  H   -0.000001   0.000679  -0.000028  -0.000001  -0.000001   0.000000
     7  H   -0.000028   0.000393   0.000005  -0.000002  -0.000021   0.000000
     8  O   -0.000001  -0.006974   0.000023   0.000146  -0.014611   0.000679
     9  H    0.000000   0.000145  -0.000003  -0.000012   0.000379  -0.000001
    10  H    0.000000   0.000023  -0.000000  -0.000003   0.003004  -0.000028
    11  O    0.255997  -0.014613   0.000393   0.000679  -0.006973   0.000146
    12  H   -0.014761   0.003006   0.000005  -0.000028   0.000023  -0.000003
    13  H    0.244797   0.000379  -0.000002  -0.000001   0.000145  -0.000012
    14  O    0.000379   6.415875   0.251329   0.256011  -0.003222   0.000163
    15  H   -0.000002   0.251329   0.240026  -0.014756   0.000048   0.000000
    16  H   -0.000001   0.256011  -0.014756   0.244788   0.000163  -0.000004
    17  O    0.000145  -0.003222   0.000048   0.000163   6.415863   0.255996
    18  H   -0.000012   0.000163   0.000000  -0.000004   0.255996   0.244797
    19  H   -0.000003   0.000048   0.000000   0.000000   0.251301  -0.014758
              19
     1  Hg  -0.002865
     2  O    0.003006
     3  H   -0.000028
     4  H    0.000005
     5  O   -0.000021
     6  H    0.000000
     7  H    0.000000
     8  O    0.000394
     9  H   -0.000002
    10  H    0.000005
    11  O    0.000023
    12  H   -0.000000
    13  H   -0.000003
    14  O    0.000048
    15  H    0.000000
    16  H    0.000000
    17  O    0.251301
    18  H   -0.014758
    19  H    0.240032
 Mulliken charges:
               1
     1  Hg   1.370037
     2  O   -0.935426
     3  H    0.517587
     4  H    0.522849
     5  O   -0.935424
     6  H    0.517594
     7  H    0.522864
     8  O   -0.935415
     9  H    0.517566
    10  H    0.522859
    11  O   -0.935437
    12  H    0.522842
    13  H    0.517585
    14  O   -0.935505
    15  H    0.522845
    16  H    0.517583
    17  O   -0.935455
    18  H    0.517588
    19  H    0.522862
 Sum of Mulliken charges =   2.00000
 Mulliken charges with hydrogens summed into heavy atoms:
               1
     1  Hg   1.370037
     2  O    0.105010
     5  O    0.105034
     8  O    0.105010
    11  O    0.104990
    14  O    0.104923
    17  O    0.104996
         Mulliken charges condensed to fragments:
      1      1.370037
      2      0.629963
 APT charges:
               1
     1  Hg   1.936099
     2  O   -0.706467
     3  H    0.356393
     4  H    0.360717
     5  O   -0.706494
     6  H    0.356415
     7  H    0.360720
     8  O   -0.706416
     9  H    0.356375
    10  H    0.360712
    11  O   -0.706441
    12  H    0.360697
    13  H    0.356396
    14  O   -0.706476
    15  H    0.360714
    16  H    0.356396
    17  O   -0.706429
    18  H    0.356380
    19  H    0.360708
 Sum of APT charges =   2.00000
 APT charges with hydrogens summed into heavy atoms:
               1
     1  Hg   1.936099
     2  O    0.010643
     5  O    0.010641
     8  O    0.010672
    11  O    0.010653
    14  O    0.010634
    17  O    0.010658
         APT charges condensed to fragments:
      1      1.936099
      2      0.063901
 Electronic spatial extent (au):  <R**2>=           1188.6352
 Charge=              2.0000 electrons
 Dipole moment (field-independent basis, Debye):
    X=              0.0022    Y=             -0.0019    Z=              0.0015  Tot=              0.0032
 Quadrupole moment (field-independent basis, Debye-Ang):
   XX=            -25.1603   YY=            -19.9697   ZZ=            -19.9819
   XY=             -0.0080   XZ=              0.0068   YZ=              0.0002
 Traceless Quadrupole moment (field-independent basis, Debye-Ang):
   XX=             -3.4563   YY=              1.7343   ZZ=              1.7220
   XY=             -0.0080   XZ=              0.0068   YZ=              0.0002
 Octapole moment (field-independent basis, Debye-Ang**2):
  XXX=              0.0421  YYY=             18.6344  ZZZ=              3.0024  XYY=              0.0012
  XXY=              0.0004  XXZ=              0.0071  XZZ=             -0.0113  YZZ=            -18.6502
  YYZ=             -2.9953  XYZ=              0.0026
 Hexadecapole moment (field-independent basis, Debye-Ang**3):
 XXXX=           -505.8218 YYYY=           -183.0022 ZZZZ=           -183.0130 XXXY=             -0.0360
 XXXZ=              0.0641 YYYX=             -8.9480 YYYZ=             -0.0348 ZZZX=             55.5661
 ZZZY=              0.0121 XXYY=            -67.2367 XXZZ=            -67.1888 YYZZ=            -60.9519
 XXYZ=              0.0421 YYXZ=            -55.5843 ZZXY=              8.8885
 N-N= 3.756367297318D+02 E-N=-1.296167509372D+03  KE= 1.321531603719D+02
  Exact polarizability:  55.829  -0.001  52.476   0.000  -0.003  52.473
 Approx polarizability:  32.989  -0.003  34.745   0.000  -0.002  34.744
 No NMR shielding tensors so no spin-rotation constants.
 Leave Link  601 at Wed May 11 22:11:28 2022, MaxMem= 67108864000 cpu:               4.4 elap:               0.2
 (Enter /cm/shared/apps/gaussian/intel/EM64T/SSE4_2-enabled/binary//g16/l701.exe)
 ... and contract with generalized density number  2.
 Compute integral second derivatives.
   1 Symmetry operations used in ECPInt.
 ECPInt:  NShTT=    2346 NPrTT=    7709 LenC2=    2347 LenP2D=    6287.
 LDataN:  DoStor=T MaxTD1= 9 Len=  602
 Leave Link  701 at Wed May 11 22:11:29 2022, MaxMem= 67108864000 cpu:              37.9 elap:               1.4
 (Enter /cm/shared/apps/gaussian/intel/EM64T/SSE4_2-enabled/binary//g16/l702.exe)
 L702 exits ... SP integral derivatives will be done elsewhere.
 Leave Link  702 at Wed May 11 22:11:29 2022, MaxMem= 67108864000 cpu:               0.6 elap:               0.0
 (Enter /cm/shared/apps/gaussian/intel/EM64T/SSE4_2-enabled/binary//g16/l703.exe)
 Integral derivatives from FoFJK, PRISM(SPDF).
 Compute integral second derivatives, UseDBF=F ICtDFT=           0.
 Calling FoFJK, ICntrl=  10100127 FMM=F ISym2X=0 I1Cent= 0 IOpClX= 0 NMat=1 NMatS=1 NMatT=0.
 FoFJK:  IHMeth= 1 ICntrl=10100127 DoSepK=F KAlg= 0 I1Cent=           0 FoldK=F
 IRaf=         0 NMat=       1 IRICut=       1 DoRegI=T DoRafI=F ISym2E= 0 IDoP0=0 IntGTp=1.
 FoFCou: FMM=F IPFlag=           0 FMFlag=      100000 FMFlg1=         800
         NFxFlg=           0 DoJE=F BraDBF=F KetDBF=F FulRan=T
         wScrn=  0.000000 ICntrl=  10100127 IOpCl=  0 I1Cent=           0 NGrid=           0
         NMat0=    1 NMatS0=      1 NMatT0=    0 NMatD0=    1 NMtDS0=    0 NMtDT0=    0
 Symmetry not used in FoFCou.
 Leave Link  703 at Wed May 11 22:11:30 2022, MaxMem= 67108864000 cpu:              23.4 elap:               0.9
 (Enter /cm/shared/apps/gaussian/intel/EM64T/SSE4_2-enabled/binary//g16/l716.exe)
 Dipole        = 7.82099381D-04-7.23725249D-04 5.41099241D-04
 Polarizability= 5.58287527D+01-1.09938120D-03 5.24764714D+01
                 2.64930785D-04-2.50588428D-03 5.24727543D+01
 Full mass-weighted force constant matrix:
 Low frequencies --- -327.3087 -326.9294 -322.0175 -321.7421 -191.6045 -182.1617
 Low frequencies ---  -78.8774  -78.3565  -78.3418
 ******   12 imaginary frequencies (negative Signs) ****** 
 Diagonal vibrational polarizability:
      171.8902844     276.9520312     276.8034927
 Harmonic frequencies (cm**-1), IR intensities (KM/Mole), Raman scattering
 activities (A**4/AMU), depolarization ratios for plane and unpolarized
 incident light, reduced masses (AMU), force constants (mDyne/A),
 and normal coordinates:
                      1                      2                      3
                      A                      A                      A
 Frequencies --   -325.8900              -325.5840              -321.6835
 Red. masses --      1.0189                 1.0187                 1.0402
 Frc consts  --      0.0638                 0.0636                 0.0634
 IR Inten    --      0.9568                 0.1692                76.3115
  Atom  AN      X      Y      Z        X      Y      Z        X      Y      Z
     1  80     0.00   0.00   0.00     0.00   0.00  -0.00    -0.00   0.00  -0.00
     2   8     0.01   0.01  -0.00     0.01  -0.00   0.01     0.01   0.00   0.01
     3   1     0.06   0.07  -0.12     0.13   0.16  -0.29     0.10   0.11  -0.19
     4   1    -0.11  -0.09   0.06    -0.24  -0.25   0.13    -0.16  -0.15   0.10
     5   8    -0.01  -0.00  -0.01    -0.01   0.01  -0.00     0.02  -0.00   0.01
     6   1    -0.12   0.18   0.26    -0.09   0.13   0.18     0.17  -0.18  -0.27
     7   1     0.22  -0.25  -0.09     0.18  -0.17  -0.08    -0.22   0.23   0.12
     8   8    -0.01  -0.00   0.00    -0.00  -0.01  -0.00    -0.02  -0.01   0.01
     9   1    -0.13   0.34  -0.01    -0.02   0.07  -0.00    -0.20   0.40  -0.01
    10   1     0.25  -0.24  -0.15     0.04  -0.04  -0.04     0.28  -0.28  -0.15
    11   8    -0.00  -0.01   0.00     0.01  -0.01  -0.00    -0.00   0.00   0.00
    12   1     0.06   0.05  -0.02    -0.28  -0.26   0.20     0.03   0.03  -0.02
    13   1    -0.03  -0.06   0.01     0.15   0.39  -0.03    -0.04  -0.06   0.00
    14   8     0.01   0.01   0.00    -0.00  -0.00   0.01    -0.02  -0.01   0.00
    15   1    -0.28  -0.03  -0.31     0.11   0.03   0.14     0.19   0.02   0.22
    16   1     0.16  -0.16   0.34    -0.06   0.07  -0.15    -0.13   0.11  -0.24
    17   8     0.00  -0.00  -0.01    -0.01   0.00  -0.00     0.01  -0.01  -0.00
    18   1     0.07   0.10   0.17    -0.11  -0.14  -0.23     0.10   0.10   0.15
    19   1    -0.14   0.02  -0.17     0.21   0.00   0.22    -0.12  -0.00  -0.14
                      4                      5                      6
                      A                      A                      A
 Frequencies --   -321.4999              -191.5985              -160.7748
 Red. masses --      1.0400                 1.1353                 1.1171
 Frc consts  --      0.0633                 0.0246                 0.0170
 IR Inten    --     75.8898                 0.0009                 0.0019
  Atom  AN      X      Y      Z        X      Y      Z        X      Y      Z
     1  80     0.00   0.00   0.00    -0.00  -0.00  -0.00     0.01   0.00  -0.00
     2   8    -0.02  -0.00  -0.01    -0.02  -0.03   0.01    -0.01  -0.02  -0.02
     3   1    -0.16  -0.15   0.28    -0.20  -0.13   0.24    -0.20  -0.13   0.23
     4   1     0.21   0.21  -0.13     0.17   0.09  -0.11     0.17   0.12  -0.13
     5   8    -0.01   0.00  -0.01     0.02  -0.03  -0.00    -0.01   0.01  -0.03
     6   1    -0.07   0.09   0.12     0.20  -0.16  -0.23    -0.19   0.15   0.21
     7   1     0.12  -0.12  -0.06    -0.17   0.11   0.10     0.17  -0.13  -0.12
     8   8    -0.00  -0.00   0.00    -0.02   0.02   0.02    -0.01  -0.01   0.03
     9   1    -0.01   0.05   0.00    -0.20   0.27  -0.00    -0.20   0.27   0.00
    10   1     0.05  -0.04  -0.02     0.17  -0.14  -0.03     0.17  -0.17  -0.04
    11   8     0.02  -0.01  -0.01     0.02   0.02  -0.02    -0.01   0.02   0.02
    12   1    -0.24  -0.23   0.16    -0.17  -0.14   0.04     0.17   0.17  -0.05
    13   1     0.17   0.34  -0.03     0.20   0.28  -0.03    -0.19  -0.26   0.03
    14   8    -0.01  -0.01   0.00     0.02   0.01   0.03    -0.01  -0.03   0.00
    15   1     0.13   0.01   0.15    -0.17   0.03  -0.14     0.17  -0.04   0.17
    16   1    -0.11   0.08  -0.17     0.20  -0.11   0.25    -0.19   0.10  -0.24
    17   8     0.02  -0.01  -0.00    -0.02   0.01  -0.03    -0.01   0.03  -0.00
    18   1     0.18   0.19   0.31    -0.20  -0.14  -0.23    -0.20  -0.13  -0.23
    19   1    -0.26  -0.01  -0.30     0.17   0.05   0.14     0.17   0.05   0.17
                      7                      8                      9
                      A                      A                      A
 Frequencies --    -67.2376               -60.8085               -60.6918
 Red. masses --      2.9219                 3.1507                 3.1563
 Frc consts  --      0.0078                 0.0069                 0.0069
 IR Inten    --      0.0004                22.9370                23.0567
  Atom  AN      X      Y      Z        X      Y      Z        X      Y      Z
     1  80    -0.00   0.00   0.00    -0.00  -0.03  -0.02     0.00   0.03  -0.03
     2   8    -0.08  -0.02  -0.12     0.13   0.07   0.14     0.02   0.01  -0.01
     3   1    -0.18   0.06  -0.20     0.31  -0.03   0.23     0.00  -0.01   0.02
     4   1    -0.03  -0.15  -0.21     0.09   0.27   0.25     0.04   0.02  -0.02
     5   8     0.08  -0.01   0.12     0.03  -0.01  -0.02     0.12  -0.05   0.15
     6   1     0.18   0.08   0.20     0.00   0.01   0.02     0.30   0.06   0.23
     7   1     0.04  -0.14   0.22     0.04  -0.03  -0.02     0.08  -0.23   0.28
     8   8    -0.08  -0.10   0.08    -0.04  -0.06   0.06    -0.12  -0.07   0.11
     9   1    -0.18  -0.21   0.05    -0.15  -0.09   0.04    -0.27  -0.20   0.07
    10   1    -0.03  -0.10   0.24    -0.00  -0.07   0.17    -0.09  -0.06   0.31
    11   8     0.08  -0.10  -0.07    -0.12   0.08   0.10    -0.04   0.07   0.06
    12   1     0.03  -0.13  -0.23    -0.09   0.09   0.30    -0.01   0.09   0.16
    13   1     0.17  -0.21  -0.03    -0.27   0.20   0.05    -0.15   0.10   0.03
    14   8     0.08   0.11  -0.06     0.10   0.14  -0.04    -0.08  -0.07   0.00
    15   1     0.03   0.26   0.00     0.05   0.32   0.04    -0.08  -0.18  -0.06
    16   1     0.18   0.13  -0.17     0.27   0.14  -0.14    -0.16  -0.09   0.10
    17   8    -0.08   0.12   0.04    -0.08   0.07  -0.00     0.09  -0.14  -0.02
    18   1    -0.17   0.15   0.15    -0.15   0.10   0.09     0.26  -0.15  -0.12
    19   1    -0.03   0.25  -0.03    -0.08   0.16  -0.08     0.05  -0.30   0.07
                     10                     11                     12
                      A                      A                      A
 Frequencies --    -48.5195               -36.0234               -35.8163
 Red. masses --      2.9163                 3.6748                 3.6806
 Frc consts  --      0.0040                 0.0028                 0.0028
 IR Inten    --      3.6845                 1.2692                 1.3626
  Atom  AN      X      Y      Z        X      Y      Z        X      Y      Z
     1  80     0.05  -0.00  -0.00    -0.00  -0.03   0.03    -0.00  -0.03  -0.03
     2   8    -0.09  -0.08  -0.01    -0.01   0.00  -0.17    -0.08  -0.08   0.10
     3   1    -0.15   0.04  -0.18    -0.20   0.09  -0.24    -0.06  -0.08   0.08
     4   1    -0.10  -0.28  -0.07     0.09  -0.17  -0.32    -0.07  -0.08   0.10
     5   8    -0.09   0.08  -0.02     0.08  -0.09  -0.07     0.00   0.03   0.18
     6   1    -0.15  -0.06  -0.18     0.08  -0.07  -0.05     0.19   0.12   0.24
     7   1    -0.10   0.27  -0.10     0.07  -0.10  -0.05    -0.09  -0.12   0.34
     8   8    -0.09   0.03   0.08    -0.06   0.19  -0.02     0.05   0.07  -0.08
     9   1    -0.15  -0.18   0.06     0.04   0.22   0.00     0.20   0.17  -0.05
    10   1    -0.10   0.08   0.28    -0.11   0.20  -0.14    -0.04   0.11  -0.28
    11   8    -0.09  -0.02   0.08    -0.04   0.10   0.08     0.07   0.18  -0.01
    12   1    -0.11  -0.05   0.29     0.05   0.16   0.27     0.10   0.20   0.09
    13   1    -0.15   0.19   0.04    -0.20   0.19   0.03    -0.02   0.20  -0.03
    14   8    -0.09  -0.06  -0.06    -0.04   0.13  -0.16    -0.07  -0.06  -0.04
    15   1    -0.10  -0.21  -0.18    -0.11   0.31  -0.11    -0.01  -0.18  -0.07
    16   1    -0.14  -0.12   0.14     0.12   0.12  -0.24    -0.16  -0.06   0.04
    17   8    -0.09   0.06  -0.07     0.07  -0.04   0.06     0.03   0.15   0.14
    18   1    -0.15   0.14   0.13     0.16  -0.06  -0.01    -0.14   0.16   0.23
    19   1    -0.11   0.21  -0.21     0.02  -0.15   0.09     0.11   0.34   0.07
                     13                     14                     15
                      A                      A                      A
 Frequencies --     94.6681                94.6856               113.3628
 Red. masses --      5.5347                 5.5339                 3.5735
 Frc consts  --      0.0292                 0.0292                 0.0271
 IR Inten    --      0.2700                 0.2711                 0.0001
  Atom  AN      X      Y      Z        X      Y      Z        X      Y      Z
     1  80    -0.00  -0.05   0.00     0.00  -0.00  -0.05    -0.00   0.00   0.00
     2   8     0.18   0.17  -0.16    -0.04  -0.03  -0.00    -0.09  -0.11   0.09
     3   1     0.21   0.17  -0.18    -0.10  -0.01  -0.01    -0.02  -0.01  -0.10
     4   1     0.22   0.18  -0.20    -0.03  -0.07  -0.03    -0.21  -0.25   0.14
     5   8    -0.18   0.19   0.14    -0.05   0.03  -0.00     0.09  -0.12  -0.08
     6   1    -0.21   0.19   0.16    -0.10   0.01  -0.00     0.02   0.00   0.10
     7   1    -0.22   0.20   0.18    -0.03   0.06  -0.04     0.21  -0.27  -0.11
     8   8    -0.13   0.12   0.05    -0.13   0.19   0.05    -0.09   0.14   0.05
     9   1    -0.19   0.12   0.04    -0.13   0.21   0.05    -0.02  -0.08   0.05
    10   1    -0.13   0.13   0.09    -0.18   0.22   0.01    -0.21   0.25   0.15
    11   8     0.13   0.12  -0.07    -0.13  -0.18   0.07     0.09   0.13  -0.06
    12   1     0.14   0.13  -0.11    -0.18  -0.22   0.04     0.21   0.23  -0.18
    13   1     0.19   0.12  -0.05    -0.13  -0.20   0.07     0.02  -0.08  -0.04
    14   8     0.05  -0.03   0.10     0.18  -0.02   0.22     0.09  -0.01   0.14
    15   1     0.08  -0.08   0.10     0.21  -0.01   0.25     0.21   0.04   0.29
    16   1     0.01  -0.03   0.12     0.23  -0.03   0.22     0.02   0.08  -0.05
    17   8    -0.05  -0.04  -0.10     0.18   0.04   0.21    -0.09  -0.03  -0.14
    18   1    -0.02  -0.04  -0.12     0.23   0.05   0.21    -0.02   0.09   0.04
    19   1    -0.09  -0.09  -0.09     0.21   0.04   0.24    -0.21   0.00  -0.29
                     16                     17                     18
                      A                      A                      A
 Frequencies --    189.3490               189.3680               251.7349
 Red. masses --      5.6967                 5.6968                 6.8375
 Frc consts  --      0.1203                 0.1204                 0.2553
 IR Inten    --      0.7343                 0.7367                10.3564
  Atom  AN      X      Y      Z        X      Y      Z        X      Y      Z
     1  80    -0.00  -0.00   0.01     0.00   0.01   0.00    -0.00   0.03   0.04
     2   8    -0.20   0.24   0.05    -0.01   0.03   0.03     0.20  -0.19  -0.03
     3   1    -0.24   0.31  -0.03     0.04   0.01   0.04     0.18  -0.24   0.06
     4   1    -0.20   0.16   0.01    -0.03   0.06   0.06     0.21  -0.13  -0.02
     5   8    -0.12  -0.15   0.07    -0.16  -0.19   0.04    -0.03  -0.03   0.05
     6   1    -0.10  -0.17   0.03    -0.22  -0.26  -0.02     0.03  -0.02   0.04
     7   1    -0.14  -0.13   0.07    -0.15  -0.10  -0.01     0.02  -0.08   0.04
     8   8     0.11   0.03   0.15    -0.17  -0.08  -0.18    -0.21  -0.04  -0.22
     9   1     0.09   0.07   0.15    -0.23  -0.17  -0.20    -0.14  -0.14  -0.21
    10   1     0.13   0.02   0.15    -0.15  -0.07  -0.08    -0.18  -0.06  -0.20
    11   8    -0.08   0.04  -0.08     0.18  -0.04   0.23    -0.19   0.05  -0.17
    12   1    -0.06   0.05   0.00     0.19  -0.03   0.17    -0.21   0.03  -0.12
    13   1    -0.14   0.10  -0.10     0.20  -0.12   0.25    -0.17   0.15  -0.18
    14   8     0.20  -0.18  -0.17    -0.02   0.05   0.01     0.22  -0.19  -0.13
    15   1     0.19  -0.10  -0.12    -0.04   0.09   0.02     0.19  -0.16  -0.14
    16   1     0.24  -0.15  -0.27     0.03   0.04  -0.00     0.14  -0.14  -0.22
    17   8     0.09   0.05  -0.09     0.18   0.16  -0.17     0.01   0.05   0.01
    18   1     0.15   0.03  -0.15     0.19   0.13  -0.24    -0.04   0.04   0.01
    19   1     0.07  -0.03  -0.04     0.19   0.12  -0.13    -0.04   0.06  -0.05
                     19                     20                     21
                      A                      A                      A
 Frequencies --    251.8035               286.2246               303.9633
 Red. masses --      6.8371                 6.7174                 5.9762
 Frc consts  --      0.2554                 0.3242                 0.3253
 IR Inten    --     10.3615                14.2970                 0.0000
  Atom  AN      X      Y      Z        X      Y      Z        X      Y      Z
     1  80     0.00  -0.04   0.03     0.07   0.00   0.00     0.00   0.00  -0.00
     2   8    -0.13   0.13   0.07    -0.12   0.18   0.07    -0.16   0.16   0.06
     3   1    -0.06   0.15   0.02    -0.16   0.17   0.10    -0.12   0.13   0.09
     4   1    -0.08   0.16   0.04    -0.09   0.19   0.05    -0.14   0.22   0.06
     5   8     0.24   0.22  -0.08    -0.13  -0.17   0.09     0.16   0.16  -0.07
     6   1     0.18   0.28   0.01    -0.16  -0.16   0.12     0.12   0.12  -0.10
     7   1     0.23   0.19  -0.06    -0.09  -0.18   0.07     0.14   0.21  -0.08
     8   8    -0.11  -0.06  -0.08    -0.13  -0.03  -0.19    -0.16  -0.03  -0.17
     9   1    -0.12  -0.12  -0.09    -0.16   0.00  -0.20    -0.12   0.01  -0.16
    10   1    -0.15  -0.02  -0.03    -0.09  -0.05  -0.19    -0.14  -0.06  -0.22
    11   8    -0.14  -0.01  -0.16    -0.13   0.01  -0.19     0.16  -0.01   0.17
    12   1    -0.10   0.03  -0.17    -0.10   0.03  -0.19     0.14  -0.03   0.22
    13   1    -0.07   0.05  -0.16    -0.16  -0.02  -0.20     0.12   0.03   0.16
    14   8    -0.10   0.04   0.08    -0.13   0.16   0.10     0.16  -0.14  -0.10
    15   1    -0.13   0.01   0.02    -0.09   0.15   0.12     0.14  -0.18  -0.14
    16   1    -0.12   0.02   0.13    -0.16   0.18   0.08     0.12  -0.15  -0.06
    17   8     0.24   0.17  -0.17    -0.13  -0.15   0.12    -0.16  -0.13   0.11
    18   1     0.18   0.11  -0.26    -0.16  -0.17   0.10    -0.12  -0.14   0.07
    19   1     0.23   0.13  -0.15    -0.09  -0.14   0.14    -0.14  -0.16   0.16
                     22                     23                     24
                      A                      A                      A
 Frequencies --    393.8134               393.9868               448.7818
 Red. masses --      1.2225                 1.2224                 1.2852
 Frc consts  --      0.1117                 0.1118                 0.1525
 IR Inten    --      5.4394                 5.4001                 0.1231
  Atom  AN      X      Y      Z        X      Y      Z        X      Y      Z
     1  80     0.00  -0.00  -0.00     0.00  -0.00   0.00    -0.00  -0.00   0.00
     2   8    -0.00  -0.02   0.01    -0.04  -0.01  -0.05    -0.03  -0.03  -0.04
     3   1    -0.05  -0.02   0.03     0.37  -0.16   0.03     0.19  -0.17   0.09
     4   1    -0.03  -0.04   0.02    -0.19   0.30   0.19    -0.15   0.22   0.15
     5   8     0.02   0.01   0.04     0.03  -0.02   0.04     0.02  -0.02   0.04
     6   1    -0.26  -0.08   0.02    -0.26  -0.15  -0.02    -0.17  -0.17  -0.08
     7   1     0.09   0.20  -0.12     0.17   0.19  -0.19     0.15   0.18  -0.17
     8   8     0.03   0.02  -0.04     0.01   0.03  -0.01    -0.02  -0.02   0.04
     9   1    -0.29  -0.11  -0.11    -0.22  -0.02  -0.06     0.16   0.16   0.09
    10   1     0.18  -0.04   0.30     0.07   0.02   0.19    -0.14   0.03  -0.23
    11   8     0.02  -0.00  -0.03    -0.03   0.04   0.03     0.03  -0.03  -0.04
    12   1     0.10   0.06   0.11    -0.17  -0.04  -0.33     0.16   0.06   0.27
    13   1    -0.09   0.07  -0.06     0.36  -0.07   0.12    -0.20   0.16  -0.12
    14   8    -0.04  -0.05   0.02     0.00   0.00  -0.02     0.03   0.05  -0.01
    15   1    -0.19   0.33   0.12    -0.00  -0.05  -0.06     0.16  -0.26  -0.09
    16   1     0.36  -0.07  -0.15    -0.10   0.02  -0.01    -0.20   0.02   0.20
    17   8    -0.03   0.04   0.02     0.02  -0.03   0.01    -0.02   0.05   0.00
    18   1     0.34   0.06  -0.12    -0.14  -0.02   0.11     0.19  -0.00  -0.19
    19   1    -0.15  -0.27   0.16     0.12   0.16  -0.04    -0.15  -0.24   0.11
                     25                     26                     27
                      A                      A                      A
 Frequencies --    449.8758               449.9292               456.5669
 Red. masses --      1.2241                 1.2241                 1.2686
 Frc consts  --      0.1460                 0.1460                 0.1558
 IR Inten    --     37.4596                37.2981                22.2116
  Atom  AN      X      Y      Z        X      Y      Z        X      Y      Z
     1  80     0.00   0.01  -0.00     0.00   0.00   0.01    -0.01   0.00   0.00
     2   8    -0.00   0.00  -0.02    -0.05  -0.02  -0.04     0.03   0.02   0.04
     3   1     0.08  -0.06   0.04     0.41  -0.13  -0.04    -0.20   0.15  -0.08
     4   1    -0.07   0.09   0.06    -0.08   0.30   0.11     0.17  -0.20  -0.17
     5   8     0.02   0.00   0.03    -0.05   0.02  -0.04     0.03  -0.02   0.04
     6   1    -0.18  -0.09  -0.01     0.39   0.12  -0.05    -0.19  -0.15  -0.06
     7   1     0.08   0.15  -0.10    -0.08  -0.27   0.13     0.17   0.18  -0.19
     8   8    -0.04  -0.01   0.03     0.03   0.03  -0.03     0.03   0.02  -0.04
     9   1     0.34   0.01   0.11    -0.27  -0.07  -0.09    -0.19  -0.15  -0.09
    10   1    -0.06  -0.05  -0.25     0.10   0.02   0.25     0.18  -0.05   0.26
    11   8     0.03  -0.01  -0.02     0.04  -0.03  -0.03     0.03  -0.02  -0.03
    12   1     0.02  -0.03   0.16     0.09  -0.01   0.29     0.17   0.07   0.25
    13   1    -0.24  -0.02  -0.08    -0.34   0.04  -0.11    -0.20   0.13  -0.10
    14   8    -0.05  -0.04   0.01     0.01  -0.00   0.01     0.03   0.04  -0.00
    15   1    -0.10   0.28   0.18    -0.04   0.03  -0.01     0.17  -0.24  -0.05
    16   1     0.42  -0.11  -0.09    -0.03   0.02  -0.04    -0.18   0.02   0.16
    17   8     0.04  -0.04  -0.01     0.02  -0.01   0.01     0.03  -0.04  -0.00
    18   1    -0.38  -0.08   0.10    -0.16  -0.06   0.01    -0.21  -0.01   0.17
    19   1     0.09   0.25  -0.20     0.00   0.06  -0.07     0.18   0.26  -0.09
                     28                     29                     30
                      A                      A                      A
 Frequencies --    588.6057               588.8833               599.6262
 Red. masses --      1.1560                 1.1559                 1.1430
 Frc consts  --      0.2360                 0.2362                 0.2421
 IR Inten    --    482.2121               480.9566              1612.2075
  Atom  AN      X      Y      Z        X      Y      Z        X      Y      Z
     1  80     0.00  -0.00   0.00    -0.00   0.00   0.00     0.00   0.00   0.00
     2   8     0.02   0.01  -0.03     0.02   0.01  -0.04    -0.03  -0.01   0.02
     3   1    -0.10  -0.08   0.15    -0.16  -0.10   0.20     0.23   0.02  -0.12
     4   1    -0.24   0.00   0.20    -0.27   0.00   0.22     0.23   0.12  -0.16
     5   8     0.03  -0.02  -0.04     0.02  -0.01  -0.02    -0.03   0.01   0.02
     6   1    -0.17   0.13   0.21    -0.08   0.08   0.12     0.24  -0.03  -0.12
     7   1    -0.31   0.02   0.24    -0.20   0.02   0.16     0.23  -0.14  -0.14
     8   8    -0.03   0.05  -0.01     0.01  -0.00   0.00    -0.03   0.02   0.00
     9   1     0.19  -0.28   0.01    -0.02   0.04  -0.00     0.23  -0.11   0.05
    10   1     0.36  -0.24   0.14    -0.08   0.06  -0.03     0.22  -0.20  -0.03
    11   8     0.00  -0.00  -0.00    -0.03  -0.05  -0.01    -0.03  -0.02   0.00
    12   1    -0.01  -0.01  -0.00     0.36   0.26   0.12     0.24   0.20  -0.05
    13   1     0.02   0.01   0.00     0.18   0.28  -0.02     0.24   0.12   0.04
    14   8    -0.03   0.02  -0.03     0.02  -0.02   0.02    -0.03   0.01  -0.02
    15   1     0.32  -0.21   0.15    -0.17   0.11  -0.08     0.23  -0.05   0.19
    16   1     0.16  -0.11   0.22    -0.11   0.07  -0.13     0.24  -0.09   0.08
    17   8     0.01   0.02   0.01    -0.03  -0.03  -0.03    -0.03  -0.01  -0.02
    18   1    -0.08  -0.06  -0.08     0.16   0.14   0.22     0.24   0.10   0.08
    19   1    -0.11  -0.08  -0.04     0.34   0.24   0.13     0.24   0.08   0.19
                     31                     32                     33
                      A                      A                      A
 Frequencies --    649.8339               650.0242               659.8925
 Red. masses --      1.1386                 1.1385                 1.1258
 Frc consts  --      0.2833                 0.2834                 0.2888
 IR Inten    --    137.6299               136.0542                 0.0568
  Atom  AN      X      Y      Z        X      Y      Z        X      Y      Z
     1  80     0.00  -0.00  -0.00    -0.00   0.00  -0.00    -0.00  -0.00   0.00
     2   8     0.03   0.02  -0.02    -0.02  -0.01   0.03    -0.03  -0.01   0.02
     3   1    -0.25  -0.05   0.18     0.20   0.07  -0.18     0.24   0.02  -0.13
     4   1    -0.23  -0.08   0.17     0.22   0.04  -0.16     0.22   0.12  -0.15
     5   8    -0.03   0.02   0.03     0.02  -0.01  -0.01     0.03  -0.02  -0.02
     6   1     0.28  -0.11  -0.23    -0.15   0.03   0.10    -0.24   0.03   0.13
     7   1     0.28  -0.08  -0.20    -0.13   0.07   0.09    -0.22   0.13   0.14
     8   8    -0.03   0.04  -0.00    -0.01   0.01   0.01    -0.03   0.02   0.00
     9   1     0.30  -0.26   0.05     0.12  -0.07   0.03     0.24  -0.13   0.05
    10   1     0.30  -0.23   0.05     0.09  -0.08  -0.01     0.22  -0.19  -0.02
    11   8     0.00   0.01   0.01    -0.03  -0.04   0.01     0.03   0.02  -0.01
    12   1    -0.03  -0.02  -0.03     0.31   0.24   0.02    -0.23  -0.19   0.04
    13   1    -0.01  -0.04   0.01     0.31   0.26   0.03    -0.25  -0.14  -0.04
    14   8     0.03  -0.01   0.03     0.02  -0.02   0.02     0.03  -0.01   0.02
    15   1    -0.25   0.10  -0.17    -0.18   0.10  -0.10    -0.22   0.05  -0.18
    16   1    -0.27   0.13  -0.17    -0.17   0.09  -0.14    -0.24   0.10  -0.09
    17   8     0.01   0.01   0.01     0.03   0.02   0.03    -0.03  -0.01  -0.02
    18   1    -0.05  -0.04  -0.06    -0.31  -0.17  -0.19     0.25   0.11   0.09
    19   1    -0.07  -0.05  -0.02    -0.30  -0.15  -0.18     0.23   0.08   0.18
                     34                     35                     36
                      A                      A                      A
 Frequencies --   1711.9559              1711.9670              1715.5899
 Red. masses --      1.0905                 1.0905                 1.0875
 Frc consts  --      1.8830                 1.8831                 1.8858
 IR Inten    --    244.7075               245.3434                97.5504
  Atom  AN      X      Y      Z        X      Y      Z        X      Y      Z
     1  80    -0.00   0.00  -0.00    -0.00  -0.00  -0.00    -0.00  -0.00  -0.00
     2   8    -0.02   0.04  -0.00    -0.00   0.01  -0.00    -0.01   0.03  -0.00
     3   1     0.25  -0.22   0.23     0.04  -0.04   0.04     0.18  -0.16   0.16
     4   1     0.01  -0.38  -0.13     0.00  -0.06  -0.02     0.00  -0.28  -0.09
     5   8     0.01   0.02   0.00    -0.02  -0.04  -0.00    -0.01  -0.03  -0.00
     6   1    -0.09  -0.09  -0.08     0.24   0.23   0.19     0.18   0.17   0.14
     7   1    -0.00  -0.14   0.07     0.01   0.34  -0.16     0.00   0.26  -0.12
     8   8     0.01   0.01   0.02    -0.01  -0.02  -0.02    -0.01  -0.02  -0.02
     9   1    -0.16  -0.20  -0.05     0.19   0.24   0.06     0.18   0.22   0.06
    10   1    -0.01  -0.05  -0.25     0.01   0.06   0.31     0.00   0.06   0.28
    11   8    -0.02   0.02  -0.03     0.00  -0.00   0.00    -0.01   0.01  -0.02
    12   1     0.01  -0.03   0.40    -0.00   0.00  -0.05     0.00  -0.03   0.28
    13   1     0.25  -0.30   0.11    -0.04   0.04  -0.02     0.17  -0.21   0.08
    14   8     0.01  -0.01  -0.02     0.01  -0.02  -0.03    -0.01   0.01   0.03
    15   1    -0.01   0.20   0.14    -0.01   0.27   0.18     0.00  -0.24  -0.17
    16   1    -0.16  -0.03   0.20    -0.20  -0.04   0.25     0.18   0.04  -0.23
    17   8     0.01   0.01  -0.01     0.02   0.01  -0.03    -0.01  -0.01   0.03
    18   1    -0.09   0.03   0.11    -0.23   0.08   0.29     0.18  -0.06  -0.21
[...]
 ,-0.24323116,-0.21536320,0.01120014,-0.00193814,-0.00446816,-0.1098158
 4,0.25012177,-0.00091590,0.00394331,0.00465422,0.05822292,-0.19406110,
 -0.21519740,0.01644975,-0.03062742,-0.02128023,-0.07541201,0.22244730,
 0.23251229,-0.02063539,-0.01172509,0.00576206,0.00214390,-0.00233369,0
 .00107802,-0.00054764,-0.00090859,0.00037804,-0.00030024,-0.00034783,0
 .00039855,0.47057074,-0.00597417,-0.01747184,0.00198127,-0.00051974,-0
 .00413124,0.00283033,0.00004628,0.00028141,-0.00125888,0.00030987,0.00
 106843,0.00022457,-0.03727645,0.29123641,-0.00074555,-0.00140028,-0.00
 956181,0.00044069,0.00258826,0.00041796,-0.00004829,-0.00114182,0.0005
 4320,-0.00015401,-0.00004560,-0.00089813,-0.07573688,0.29960710,0.3924
 0738,-0.00229355,0.00138881,0.00125997,0.00017698,0.00046392,-0.000440
 32,0.00010224,-0.00012855,0.00018309,0.00004143,-0.00028136,0.00012932
 ,-0.36023506,0.14062853,0.17785332,0.35746238,-0.00294397,0.00343553,0
 .00165677,0.00133796,-0.00010694,-0.00065737,-0.00025479,-0.00027446,0
 .00069914,-0.00041999,-0.00078455,0.00041181,0.10315520,-0.08410294,-0
 .08358308,-0.13211938,0.08803062,0.00307956,0.00094706,0.00153247,-0.0
 0092943,-0.00098090,0.00020784,0.00026406,0.00071126,-0.00050829,0.000
 21414,0.00042080,0.00024166,0.12571235,-0.07990472,-0.10686445,-0.1649
 1453,0.09729632,0.12018987,-0.00033708,-0.00607039,-0.00452798,-0.0002
 0522,-0.00003791,0.00039385,0.00020452,-0.00002638,-0.00009761,0.00004
 301,0.00010922,-0.00007637,-0.08287933,-0.09478990,-0.10680463,0.00551
 286,0.03172944,0.03771585,0.07719670,-0.00549414,-0.00199361,-0.002737
 40,0.00069912,0.00096689,0.00007132,-0.00016353,-0.00085813,0.00048934
 ,-0.00016053,-0.00031492,-0.00015148,-0.05349527,-0.19076376,-0.213210
 95,-0.01021537,-0.00709362,-0.01827130,0.06654925,0.20133491,0.0004445
 7,0.00189405,0.00366412,-0.00009833,0.00023395,-0.00089161,-0.00001142
 ,0.00050762,0.00015272,-0.00002878,-0.00010905,0.00022504,-0.05936671,
 -0.21959265,-0.27514779,-0.01402943,-0.01576789,-0.01396530,0.07472541
 ,0.23374740,0.28727348,-0.00961859,-0.00539093,-0.00298564,0.00074697,
 0.00040763,-0.00257304,0.00030959,0.00002371,0.00017685,-0.00048453,-0
 .00124390,0.00242503,0.00002956,-0.00148509,-0.00058724,0.00035182,0.0
 0076789,0.00023701,-0.00046090,0.00011931,0.00029181,0.44847276,-0.000
 03707,-0.02002310,-0.00592585,-0.00045877,0.00389565,-0.00045475,-0.00
 006301,0.00028408,0.00012837,-0.00244677,-0.00116236,-0.00271010,-0.00
 203966,-0.00147066,-0.00075795,0.00030502,-0.00039959,-0.00011966,-0.0
 0035340,-0.00002794,0.00047889,0.24718036,0.18887216,0.00184510,-0.011
 83553,-0.01801199,-0.00411926,0.00062113,-0.00503479,0.00003283,0.0011
 1330,-0.00026636,0.00159806,-0.00071866,-0.00002474,-0.00108416,-0.001
 33428,0.00080863,-0.00015981,-0.00031716,-0.00075540,-0.00009875,0.000
 18186,0.00004509,-0.11411347,-0.02971082,0.51675776,0.00256419,0.00160
 369,0.00144723,-0.00103807,0.00004330,-0.00080471,0.00000529,0.0001802
 1,-0.00024292,0.00078312,0.00000036,-0.00046463,-0.00072632,0.00008852
 ,0.00054999,-0.00021670,-0.00061587,-0.00049825,0.00006754,-0.00007191
 ,-0.00004267,-0.07623067,-0.03714677,0.09156935,0.08783132,0.00127163,
 0.00247559,-0.00447655,-0.00036295,-0.00014012,-0.00062181,-0.00003491
 ,0.00029968,0.00000983,-0.00005544,0.00024980,0.00040380,-0.00009758,-
 0.00016834,0.00082555,-0.00040060,-0.00005580,-0.00047364,0.00003083,0
 .00000173,-0.00009322,-0.03772912,-0.03590160,0.03950466,0.04643709,0.
 03243316,0.00033398,0.00013603,-0.00236853,-0.00050621,-0.00017624,-0.
 00024738,0.00004387,0.00014532,-0.00009600,0.00021483,0.00001208,-0.00
 039258,0.00011114,0.00039627,0.00009243,-0.00020917,-0.00026801,0.0000
 5914,0.00004618,-0.00006624,-0.00003565,0.14945537,0.06752118,-0.43915
 303,-0.13933115,-0.06303579,0.44551514,0.00220483,-0.00008051,-0.00087
 101,0.00008884,0.00021406,0.00044894,0.00004696,0.00005075,-0.00010083
 ,-0.00071377,-0.00031936,-0.00062887,0.00014840,0.00040608,0.00013000,
 -0.00005433,-0.00008167,-0.00001751,0.00013062,-0.00003182,-0.00005893
 ,-0.36270071,-0.20800342,0.01822868,-0.01303762,-0.01052677,-0.0103859
 9,0.37562281,-0.00535051,-0.00317175,-0.00411830,-0.00004677,-0.000731
 03,0.00005692,0.00005524,0.00005594,0.00000743,0.00065433,0.00068153,0
 .00024640,0.00012632,-0.00018635,0.00000112,-0.00005665,0.00002338,-0.
 00004661,-0.00011254,-0.00000451,0.00002090,-0.20335744,-0.13372489,0.
 00435782,-0.01076536,0.00122453,-0.00496420,0.21845654,0.13633895,-0.0
 0513558,-0.00482075,0.00230154,0.00050539,0.00126289,-0.00103468,-0.00
 000310,0.00004276,-0.00003713,-0.00114662,-0.00067857,0.00017573,-0.00
 028946,-0.00045701,-0.00040553,0.00008284,0.00004491,0.00006453,-0.000
 14924,-0.00005922,0.00018418,-0.03614984,-0.02755324,-0.05218178,0.047
 73372,0.02767677,-0.00374157,-0.00608633,0.00176830,0.05366495,-0.0087
 7353,0.00595510,0.00428328,0.00053690,0.00129971,0.00017804,-0.0000294
 4,-0.00070816,0.00004504,-0.00031299,-0.00008412,-0.00027158,-0.001814
 42,0.00080595,0.00349278,0.00019855,-0.00040256,0.00006001,0.00198072,
 0.00067016,-0.00239526,0.00060097,-0.00040721,-0.00049337,-0.00018974,
 -0.00006148,0.00003670,-0.00018952,0.00019978,0.00024148,0.25336394,-0
 .00087390,-0.02152381,-0.00708360,0.00159552,-0.00238358,-0.00018927,-
 0.00036267,-0.00008862,-0.00022448,0.00023563,-0.00008564,0.00066982,0
 .00191609,0.00355610,-0.00094275,0.00001334,0.00033546,0.00015597,0.00
 244857,-0.00216804,-0.00107675,0.00038924,0.00027096,-0.00006270,-0.00
 007432,0.00012737,0.00011503,-0.00018927,0.00028963,0.00054475,-0.2388
 9302,0.32975440,-0.00168495,-0.00923144,-0.01735025,0.00047458,-0.0010
 3120,0.00121604,0.00035112,-0.00066900,-0.00068411,0.00000116,0.000134
 74,-0.00004477,0.00523058,-0.00069106,-0.00213365,0.00045716,0.0009742
 5,-0.00020947,-0.00112715,0.00007575,-0.00148274,0.00034226,-0.0003263
 4,0.00085135,-0.00007913,0.00047870,0.00011002,-0.00008434,0.00041812,
 0.00009653,0.01596004,-0.14185666,0.57098506,0.00209640,0.00037227,-0.
 00043846,-0.00007785,-0.00024484,0.00000992,0.00001944,0.00006203,-0.0
 0001655,0.00010053,0.00002039,0.00003050,0.00003002,-0.00086918,0.0000
 2575,-0.00002559,-0.00004551,0.00010554,-0.00110444,0.00103181,0.00014
 850,-0.00016384,0.00010131,0.00009872,0.00007134,0.00002901,0.00000541
 ,0.00007489,-0.00006217,-0.00005618,-0.21323494,0.23078415,-0.08812541
 ,0.21032832,0.00485571,-0.00467640,-0.00231584,-0.00016250,-0.00004905
 ,-0.00004063,0.00007527,-0.00001693,-0.00002076,0.00006347,-0.00003616
 ,0.00003971,-0.00020250,-0.00055465,0.00008666,-0.00003294,0.00008313,
 -0.00003987,-0.00022747,0.00062319,-0.00003344,-0.00020311,0.00030513,
 0.00031929,0.00008149,0.00000046,-0.00005489,0.00005626,-0.00012141,-0
 .00011691,0.21271167,-0.25723193,0.09936666,-0.22912285,0.26583409,0.0
 0321886,-0.00592136,0.00391189,0.00027704,-0.00066096,-0.00031657,-0.0
 0008737,0.00009729,0.00003110,0.00009183,-0.00008450,0.00024551,0.0002
 8006,0.00109607,-0.00115182,0.00002125,0.00001935,0.00000779,0.0004480
 5,-0.00066607,0.00062207,-0.00016187,0.00065548,0.00005540,0.00010645,
 -0.00014629,-0.00001534,-0.00000178,-0.00014631,0.00012689,-0.04411728
 ,0.05773554,-0.07812167,0.07650848,-0.09605893,0.08945048,0.00222863,-
 0.00143344,-0.00088961,-0.00049248,-0.00010961,-0.00050252,-0.00007876
 ,0.00066515,0.00025628,0.00007598,0.00006769,0.00005230,-0.00113745,0.
 00028780,0.00024954,-0.00009696,-0.00012277,0.00024298,0.00050191,-0.0
 0011898,0.00089717,-0.00016654,0.00010435,0.00010493,0.00005326,-0.000
 01743,-0.00002043,0.00008276,-0.00007387,-0.00010369,-0.03379958,0.006
 04387,0.07338606,0.00377374,0.01294311,-0.03578884,0.02938210,0.000424
 13,0.00303136,-0.00430644,-0.00010617,-0.00014429,0.00097775,0.0005493
 4,-0.00037349,-0.00040262,-0.00001452,-0.00001145,-0.00011478,0.000838
 56,-0.00034151,-0.00055403,0.00013981,0.00032020,-0.00002946,-0.000170
 37,0.00028782,0.00018356,-0.00002826,0.00009708,0.00045929,0.00004132,
 0.00013114,0.00000439,0.00000198,0.00002599,-0.00012119,0.01913042,-0.
 05078337,0.05337128,-0.00143782,-0.00372138,0.04154853,-0.01787933,0.0
 5165058,0.00140006,-0.00057991,-0.00258533,-0.00020473,0.00041043,-0.0
 0016548,0.00004403,-0.00006598,0.00023889,-0.00002087,-0.00003099,-0.0
 0003092,0.00006202,-0.00021393,0.00005332,-0.00000848,0.00009465,-0.00
 001379,0.00013695,-0.00000663,-0.00014832,-0.00010337,0.00016800,0.000
 11700,0.00005237,-0.00001670,-0.00003759,0.00001535,-0.00008439,-0.000
 05224,0.02515798,0.09386085,-0.46672835,0.01140814,-0.00327297,-0.0156
 0671,-0.03765105,-0.09045577,0.48476887,-0.01235256,0.00330839,-0.0013
 8201,0.00077979,0.00034382,-0.00025816,-0.00005780,-0.00032161,0.00022
 648,-0.00005455,-0.00036419,0.00021993,-0.00583967,0.00067891,-0.00131
 797,-0.00063600,-0.00075466,-0.00076297,-0.00061680,0.00013789,0.00059
 926,0.00135063,0.00200553,0.00058182,-0.00023334,-0.00041733,-0.000228
 02,-0.00071187,0.00053196,0.00040718,0.00169108,0.00007968,-0.00296349
 ,-0.00228271,-0.00046136,-0.00053194,-0.00004097,-0.00066887,-0.000404
 62,0.59451358,0.00388703,-0.02084173,0.00436876,-0.00013716,0.00025480
 ,0.00049719,-0.00002519,0.00012473,-0.00019432,-0.00033230,0.00034418,
 -0.00055611,0.00159049,0.00368673,0.00011657,-0.00020189,-0.00003801,0
 .00007682,0.00136348,-0.00094770,0.00002492,0.00136294,-0.00522335,-0.
 00169212,-0.00095974,0.00047837,0.00068574,0.00048271,0.00092196,-0.00
 037050,0.00003001,0.00387834,0.00110682,-0.00015599,-0.00135762,0.0035
 2348,-0.00011468,0.00033447,-0.00004152,0.20108956,0.19472842,-0.00607
 306,0.01239442,-0.01443929,0.00054600,-0.00022503,0.00068834,0.0000287
 3,-0.00033161,-0.00001987,-0.00003290,-0.00009944,-0.00009328,-0.00313
 074,-0.00029509,0.00176680,-0.00060674,-0.00027617,-0.00074840,0.00043
 351,-0.00000867,-0.00010960,0.00031422,0.00011167,0.00230379,-0.000504
 55,0.00154476,0.00003426,0.00003319,0.00044791,-0.00033893,-0.00143999
 ,-0.00029438,-0.00595773,0.00027307,0.00120967,0.00197286,-0.00024961,
 -0.00085835,0.00003143,0.06194459,-0.14315410,0.36507070,0.00521098,0.
 00293626,-0.00128971,-0.00015980,-0.00049724,0.00026036,0.00007259,0.0
 0008272,-0.00011211,0.00012674,0.00011366,0.00001100,0.00009086,-0.002
 90502,0.00255696,-0.00032297,0.00041989,-0.00030881,-0.00022766,0.0003
 6210,-0.00082879,-0.00076480,0.00062000,0.00034455,0.00037382,0.000155
 96,-0.00000110,0.00014924,-0.00025946,-0.00004202,-0.00084553,-0.00060
 955,-0.00064004,0.00052684,0.00017285,0.00034486,0.00006475,0.00001125
 ,0.00001755,-0.23268738,-0.14692206,0.12262739,0.25623080,-0.00175105,
 -0.00362396,0.00647125,-0.00010318,0.00033000,-0.00044197,-0.00000418,
 0.00001598,0.00011617,0.00003884,-0.00013211,0.00014329,-0.00091963,-0
 .00115064,-0.00139825,0.00016815,0.00016850,0.00014171,-0.00078500,0.0
 0080101,-0.00028039,0.00015296,0.00093696,-0.00063667,0.00020194,-0.00
 098525,-0.00019009,-0.00016546,-0.00025186,0.00019974,-0.00004123,-0.0
 0067160,-0.00002888,0.00031220,0.00066572,-0.00053889,0.00004127,0.000
 05933,-0.00003638,-0.16601498,-0.14125310,0.12617526,0.17237105,0.1434
 0370,0.00273352,0.00360099,-0.00024554,-0.00004635,-0.00028750,0.00002
 588,0.00000291,0.00009462,-0.00003193,0.00006077,0.00004449,0.00008586
 ,0.00125365,-0.00206745,-0.00060538,0.00039619,-0.00008400,0.00079495,
 -0.00102772,0.00056387,-0.00043485,-0.00003962,0.00003135,-0.00030142,
 0.00005606,-0.00033543,0.00010976,-0.00004893,-0.00006098,0.00005517,-
 0.00068945,-0.00112487,-0.00015845,0.00088930,0.00078635,-0.00105202,-
 0.00007916,-0.00005903,-0.00005860,0.17664296,0.15292538,-0.17479135,-
 0.15171523,-0.13958960,0.16610839,-0.00022961,0.00132307,-0.00305063,-
 0.00005492,-0.00013623,0.00019837,0.00000131,0.00003457,-0.00008221,-0
 .00001546,0.00010227,-0.00009795,-0.00002008,0.00019906,0.00021599,-0.
 00009442,0.00002597,-0.00019989,-0.00004126,0.00001850,-0.00007899,0.0
 0019654,-0.00118467,0.00027503,-0.00021069,0.00066027,0.00012555,0.000
 24912,0.00026482,-0.00014989,-0.00007064,0.00011521,0.00067802,0.00042
 458,-0.00000087,-0.00021861,0.00006247,0.00004532,0.00011478,-0.343492
 11,-0.05952383,-0.17498985,-0.02806472,-0.00347621,-0.02843676,0.37182
 866,0.00395162,0.00233169,0.00276474,-0.00035270,0.00015015,-0.0003255
 0,-0.00000035,0.00013074,0.00003018,0.00011574,-0.00000622,0.00009246,
 0.00114492,0.00004402,-0.00019303,0.00024265,0.00028082,0.00013567,0.0
 0006840,0.00006194,0.00005335,-0.00130176,0.00054947,-0.00088928,0.000
 70652,-0.00057814,-0.00019731,0.00031913,-0.00100037,0.00010907,0.0000
 9890,-0.00018038,0.00074437,-0.00026395,0.00026506,-0.00026008,-0.0000
 2188,0.00030761,0.00003243,-0.03962515,-0.03307579,0.00221720,-0.02658
 676,0.00187203,-0.01461360,0.06204986,0.02907245,-0.00188230,-0.001015
 80,0.00057710,0.00007760,-0.00003503,-0.00004815,-0.00001174,-0.000024
 53,0.00001494,0.00000216,-0.00001294,0.00007828,-0.00008488,-0.0000683
 1,0.00029998,0.00002203,-0.00008942,0.00002350,0.00001181,0.00005016,0
 .00004476,0.00000845,0.00012283,-0.00046807,0.00018099,-0.00032987,0.0
 0010854,-0.00009262,-0.00003329,0.00024940,0.00037070,0.00014637,-0.00
 117417,-0.00090491,0.00001738,-0.00004985,-0.00017938,-0.00020436,-0.0
 0016108,-0.23239473,-0.01890084,-0.17484052,0.02911498,0.00984336,0.01
 064072,0.20525699,0.01020467,0.16499374,-0.01884183,-0.00820505,0.0013
 8659,-0.00616196,0.00230556,-0.00175558,-0.00078675,0.00097604,0.00068
 981,-0.00062294,-0.00017832,-0.00074945,0.00074758,-0.00039769,0.00043
 242,0.00017206,0.00041862,-0.00022398,0.00025612,0.00041379,-0.0002625
 8,-0.00054874,0.00100449,0.00511292,0.00006337,0.00099317,0.00033667,-
 0.00207514,0.00019403,0.00000918,0.00061092,-0.00346164,-0.00148902,-0
 .00066371,-0.00018670,-0.00060754,-0.00025482,0.00002041,0.00030657,0.
 00114711,-0.00116556,0.00077248,0.00001325,0.00009539,-0.00004133,-0.0
 0073119,-0.00061658,0.00052789,0.50656950,-0.00620009,-0.01769237,0.00
 198207,0.00121378,0.00351754,0.00010111,0.00034450,-0.00035657,-0.0000
 3112,-0.00134216,-0.00052143,-0.00028075,-0.00015861,0.00036453,0.0003
 9550,0.00008349,0.00000050,-0.00010539,0.00053058,0.00010708,-0.000322
 93,0.00063938,0.00370755,0.00002336,0.00019776,0.00005352,-0.00008677,
 -0.00085465,-0.00135494,0.00332220,-0.00224476,-0.00393172,-0.00207985
 ,0.00012508,0.00107174,-0.00029235,0.00081274,0.00016677,0.00093372,-0
 .00035085,-0.00160931,0.00190685,0.00062037,-0.00019797,0.00009765,-0.
 00017929,-0.00011559,-0.00037963,-0.22120094,0.31549071,0.00808651,0.0
 0814700,-0.01113539,-0.00007568,-0.00043621,0.00225741,0.00047417,-0.0
 0011629,-0.00028151,-0.00053838,0.00006966,-0.00053253,-0.00056030,-0.
 00020648,0.00061311,-0.00005554,-0.00017873,-0.00012481,0.00010459,0.0
 0003133,-0.00016634,0.00326684,-0.00084664,-0.00354775,-0.00000530,-0.
 00058724,0.00020699,-0.00136883,0.00156336,0.00176216,-0.00077865,-0.0
 0075020,0.00175136,-0.00003116,0.00032575,-0.00053751,0.00077541,0.001
 44388,0.00036595,0.00030756,0.00182337,-0.00016487,-0.00044152,-0.0000
 7150,-0.00025880,0.00010277,-0.00058596,0.00004459,-0.03658441,-0.2083
 4981,0.33191463,-0.00291842,0.00046753,0.00240259,-0.00023548,-0.00006
 032,-0.00045802,-0.00017854,0.00012791,0.00014962,-0.00007473,0.000000
 38,0.00004652,0.00019792,0.00013692,-0.00019956,-0.00002596,0.00001648
 ,0.00007156,-0.00009321,-0.00006988,0.00006068,-0.00001868,-0.00020536
 ,0.00000010,0.00004339,0.00010635,-0.00003081,0.00009268,0.00003296,0.
 00018629,0.00089963,0.00096921,-0.00006264,-0.00006323,-0.00049999,0.0
 0008566,-0.00038281,-0.00053623,-0.00033104,-0.00011645,0.00032179,-0.
 00034254,-0.00003995,-0.00001309,0.00000149,0.00023730,-0.00001539,0.0
 0006723,-0.40227682,0.16122108,0.07611881,0.41834765,-0.00324757,0.003
 52051,0.00061474,-0.00091740,0.00037691,-0.00048052,-0.00014228,0.0003
 2227,0.00001386,-0.00004334,0.00008108,0.00001409,0.00043481,-0.000004
 10,-0.00011926,0.00003369,0.00012915,0.00001404,-0.00011413,0.00005182
 ,0.00002618,-0.00041285,-0.00006308,0.00074878,0.00007280,0.00028622,0
 .00007002,0.00034117,0.00018130,-0.00021406,0.00141658,-0.00015046,-0.
 00032801,-0.00059758,-0.00075706,-0.00009895,-0.00062244,-0.00021988,-
 0.00038048,0.00082322,-0.00040189,-0.00024455,-0.00009510,0.00002124,0
 .00001606,-0.00032434,-0.00010386,0.00061150,0.13247609,-0.08728719,-0
 .00331145,-0.16524226,0.09222827,0.00039042,-0.00156272,0.00207323,-0.
 00009079,-0.00012070,0.00018386,-0.00011393,-0.00005364,0.00006516,-0.
 00003907,0.00005305,0.00005953,-0.00001593,0.00003459,-0.00014589,-0.0
 0001268,-0.00002846,0.00004359,-0.00006319,-0.00003710,0.00009779,0.00
 013724,0.00012226,-0.00134177,0.00018528,-0.00024513,-0.00012007,0.000
 90631,-0.00023930,0.00036663,0.00045874,0.00046991,-0.00047114,-0.0000
 0485,-0.00019259,0.00031871,-0.00041713,-0.00046863,-0.00007799,-0.000
 71743,-0.00009664,-0.00028411,0.00009940,0.00006939,0.00005226,0.00034
 352,0.00062880,-0.00034790,0.12666774,-0.03077724,-0.06171036,-0.09183
 396,0.01184397,0.05518647,0.00315124,-0.00617117,0.00466809,0.00235037
 ,0.00258239,-0.00189760,-0.00027530,-0.00023750,-0.00004555,-0.0006781
 5,-0.00016089,0.00063093,0.00017664,0.00062933,-0.00035332,-0.00001677
 ,-0.00011028,0.00015230,0.00007190,-0.00018049,0.00003446,-0.00090085,
 0.00102505,0.00027673,0.00002651,0.00001930,0.00000318,0.00059183,-0.0
 0043121,0.00014587,-0.00062239,-0.00012616,-0.00062481,0.00017021,0.00
 014048,0.00013266,0.00022476,-0.00036098,0.00000836,-0.00035998,-0.000
 58963,0.00039679,0.00025295,-0.00010779,0.00008771,0.00002512,0.000086
 78,-0.00009026,-0.07661600,0.06674261,-0.04879689,-0.01339430,0.036160
 93,-0.03587971,0.08582223,-0.00257303,-0.00219294,0.00543517,0.0004277
 4,-0.00216288,-0.00046852,-0.00004523,0.00029142,0.00006724,0.00119670
 ,0.00060500,-0.00013481,0.00029850,0.00010839,-0.00027374,-0.00003067,
 0.00004862,0.00007190,-0.00014231,-0.00006416,0.00010549,0.00010902,-0
 .00092247,-0.00013229,-0.00002103,0.00006767,-0.00004653,-0.00007575,0
 .00080390,-0.00057993,0.00052427,0.00098692,-0.00042826,-0.00003835,-0
 .00032592,0.00019893,-0.00045154,-0.00081698,-0.00031443,-0.00001996,-
 0.00000349,-0.00022034,0.00000909,-0.00000797,0.00006168,-0.00001348,-
 0.00000563,0.00009776,0.09651489,-0.21141284,0.20203615,0.00324190,-0.
 00821123,0.02060018,-0.09891077,0.22321460,-0.00020418,0.00230537,0.00
 037372,-0.00072322,-0.00072972,-0.00185726,-0.00080013,-0.00003501,0.0
 0062367,0.00099260,0.00017272,0.00021645,0.00000259,-0.00008033,-0.000
 08836,0.00003152,0.00005308,0.00002456,-0.00004356,0.00000401,0.000072
 95,0.00005900,-0.00093468,0.00014807,0.00009187,-0.00008240,-0.0000285
 4,-0.00001650,0.00080510,-0.00125584,-0.00009920,-0.00009258,-0.000493
 85,0.00007419,-0.00000465,0.00010877,-0.00008323,-0.00041404,0.0000909
 4,0.00003153,-0.00014289,-0.00008023,0.00000227,0.00005245,0.00006536,
 -0.00000626,0.00005182,0.00001419,-0.09452837,0.23394338,-0.26045633,0
 .01406802,-0.00879598,0.00605200,0.08115105,-0.22607565,0.25646972\\-0
 .00000152,0.00000571,-0.00000515,0.00575442,0.00919454,-0.00599477,-0.
 00013979,0.00286365,0.01203401,-0.00572235,-0.00869548,-0.00773756,0.0
 0067768,-0.01017708,0.00705598,0.00321263,-0.00328457,-0.01141402,-0.0
 0547824,0.01033427,0.00575050,-0.00554703,0.01101886,-0.00126606,0.010
 96681,0.00073047,-0.00559095,-0.00600831,-0.00822953,0.00806960,-0.008
 38341,-0.00903445,-0.00129578,-0.00039469,0.00912380,-0.00923861,0.007
 72293,-0.00337108,0.00901663,0.00332258,-0.01086537,-0.00492334,0.0099
 1727,0.00798297,0.00271943,-0.01205558,-0.00067716,0.00261856,0.004175
 81,0.00977054,0.00637803,-0.00971619,0.00373488,-0.00660765,0.00769695
 ,-0.01042497,0.00043117\\\@


 Life may have no meaning.  Or even worse, it may have a
 meaning of which I disapprove.
                                 -- Ashleigh Brilliant
 Job cpu time:       0 days  0 hours 52 minutes  1.5 seconds.
 Elapsed time:       0 days  0 hours  1 minutes 52.6 seconds.
 File lengths (MBytes):  RWF=   2793 Int=      0 D2E=      0 Chk=      3 Scr=      1
 Normal termination of Gaussian 16 at Wed May 11 22:11:31 2022.
