 Entering Gaussian System, Link 0=g16
 Initial command:
 /cm/shared/apps/gaussian/intel/EM64T/SSE4_2-enabled/binary//g16/l1.exe "/scratch/florez/25750/Gau-6641.inp" -scrdir="/scratch/florez/25750/"
 Entering Link 1 = /cm/shared/apps/gaussian/intel/EM64T/SSE4_2-enabled/binary//g16/l1.exe PID=      6645.
  
 Copyright (c) 1988,1990,1992,1993,1995,1998,2003,2009,2016,
            Gaussian, Inc.  All Rights Reserved.
  
 This is part of the Gaussian(R) 16 program.  It is based on
 the Gaussian(R) 09 system (copyright 2009, Gaussian, Inc.),
 the Gaussian(R) 03 system (copyright 2003, Gaussian, Inc.),
 the Gaussian(R) 98 system (copyright 1998, Gaussian, Inc.),
 the Gaussian(R) 94 system (copyright 1995, Gaussian, Inc.),
 the Gaussian 92(TM) system (copyright 1992, Gaussian, Inc.),
 the Gaussian 90(TM) system (copyright 1990, Gaussian, Inc.),
 the Gaussian 88(TM) system (copyright 1988, Gaussian, Inc.),
 the Gaussian 86(TM) system (copyright 1986, Carnegie Mellon
 University), and the Gaussian 82(TM) system (copyright 1983,
 Carnegie Mellon University). Gaussian is a federally registered
 trademark of Gaussian, Inc.
  
 This software contains proprietary and confidential information,
 including trade secrets, belonging to Gaussian, Inc.
  
 This software is provided under written license and may be
 used, copied, transmitted, or stored only in accord with that
 written license.
  
 The following legend is applicable only to US Government
 contracts under FAR:
  
                    RESTRICTED RIGHTS LEGEND
  
 Use, reproduction and disclosure by the US Government is
 subject to restrictions as set forth in subparagraphs (a)
 and (c) of the Commercial Computer Software - Restricted
 Rights clause in FAR 52.227-19.
  
 Gaussian, Inc.
 340 Quinnipiac St., Bldg. 40, Wallingford CT 06492
  
  
 ---------------------------------------------------------------
 Warning -- This program may not be used in any manner that
 competes with the business of Gaussian, Inc. or will provide
 assistance to any competitor of Gaussian, Inc.  The licensee
 of this program is prohibited from giving any competitor of
 Gaussian, Inc. access to this program.  By using this program,
 the user acknowledges that Gaussian, Inc. is engaged in the
 business of creating and licensing software in the field of
 computational chemistry and represents and warrants to the
 licensee that it is not a competitor of Gaussian, Inc. and that
 it will not use this program in any manner prohibited above.
 ---------------------------------------------------------------
  

 Cite this work as:
 Gaussian 16, Revision A.03,
 M. J. Frisch, G. W. Trucks, H. B. Schlegel, G. E. Scuseria, 
 M. A. Robb, J. R. Cheeseman, G. Scalmani, V. Barone, 
 G. A. Petersson, H. Nakatsuji, X. Li, M. Caricato, A. V. Marenich, 
 J. Bloino, B. G. Janesko, R. Gomperts, B. Mennucci, H. P. Hratchian, 
 J. V. Ortiz, A. F. Izmaylov, J. L. Sonnenberg, D. Williams-Young, 
 F. Ding, F. Lipparini, F. Egidi, J. Goings, B. Peng, A. Petrone, 
 T. Henderson, D. Ranasinghe, V. G. Zakrzewski, J. Gao, N. Rega, 
 G. Zheng, W. Liang, M. Hada, M. Ehara, K. Toyota, R. Fukuda, 
 J. Hasegawa, M. Ishida, T. Nakajima, Y. Honda, O. Kitao, H. Nakai, 
 T. Vreven, K. Throssell, J. A. Montgomery, Jr., J. E. Peralta, 
 F. Ogliaro, M. J. Bearpark, J. J. Heyd, E. N. Brothers, K. N. Kudin, 
 V. N. Staroverov, T. A. Keith, R. Kobayashi, J. Normand, 
 K. Raghavachari, A. P. Rendell, J. C. Burant, S. S. Iyengar, 
 J. Tomasi, M. Cossi, J. M. Millam, M. Klene, C. Adamo, R. Cammi, 
 J. W. Ochterski, R. L. Martin, K. Morokuma, O. Farkas, 
 J. B. Foresman, and D. J. Fox, Gaussian, Inc., Wallingford CT, 2016.
 
 ******************************************
 Gaussian 16:  ES64L-G16RevA.03 25-Dec-2016
                11-May-2022 
 ******************************************
 %chk=w6s19.chk
 %nproc=28
 Will use up to   28 processors via shared memory.
 %mem=500gb
 ------------------------
 #p MP2(full) SDDAll freq
 ------------------------
 1/10=4,30=1,38=1/1,3;
 2/12=2,17=6,18=5,40=1/2;
 3/5=17,6=6,11=9,25=1,30=1,71=2,140=1/1,2,3;
 4//1;
 5/5=2,38=5,98=1/2;
 8/6=3,8=1,10=90,19=11/1;
 9/15=3,16=-3/6;
 11/6=1,8=1,15=11,17=11,24=-1,27=1,28=-2,29=300,32=6,42=3/1,2,10;
 10/6=2,21=1/2;
 8/6=4,8=1,10=90,19=11/11,4;
 10/5=1,20=4/2;
 11/12=2,14=11,16=1,28=-2,42=3/2,10,12;
 6/7=2,8=2,9=2,10=2/1;
 7/8=1,10=1,12=2,25=1,44=2/1,2,3,16;
 1/10=4,30=1/3;
 99//99;
 Leave Link    1 at Wed May 11 22:11:31 2022, MaxMem= 67108864000 cpu:               0.9 elap:               0.0
 (Enter /cm/shared/apps/gaussian/intel/EM64T/SSE4_2-enabled/binary//g16/l101.exe)
 ----------------------------------------------------------------------
 file 'w6s19.log' Now we use Def2-QZVPPD, but it was opt at: ---'ZORA-S
 R+SO PBE QZ4P'---
 ----------------------------------------------------------------------
 Symbolic Z-matrix:
 Charge =  2 Multiplicity = 1
 Hg(Fragment=1)        0.01992  -0.04597   0.46109 
 O(Fragment=2)        -1.57659  -1.19789   0.69565 
 H(Fragment=2)        -1.31572  -2.13341   0.62153 
 H(Fragment=2)        -3.09285  -0.92566   0.85804 
 O(Fragment=2)         3.40435   1.07452   1.92442 
 H(Fragment=2)         4.2816    0.70013   1.7354 
 H(Fragment=2)         3.55226   1.84269   2.50259 
 O(Fragment=2)        -4.08297  -0.68974   1.00558 
 H(Fragment=2)        -4.80208  -1.00712   0.22127 
 H(Fragment=2)        -4.36478  -0.93632   1.90489 
 O(Fragment=2)         2.02629   1.88479  -2.14296 
 H(Fragment=2)         2.5787    1.38107  -2.76445 
 H(Fragment=2)         2.16922   2.82477  -2.34694 
 O(Fragment=2)        -5.6276   -1.28753  -0.79935 
 H(Fragment=2)        -6.24256  -0.58507  -1.07699 
 H(Fragment=2)        -6.12819  -2.12237  -0.79767 
 O(Fragment=2)         1.55152   1.23676   0.24437 
 H(Fragment=2)         2.36826   1.15559   0.90613 
 H(Fragment=2)         1.81823   1.47831  -0.73839 
 
 ITRead=  0  0  0  0  0  0  0  0  0  0  0  0  0  0  0  0  0  0  0
 MicOpt= -1 -1 -1 -1 -1 -1 -1 -1 -1 -1 -1 -1 -1 -1 -1 -1 -1 -1 -1
 NAtoms=     19 NQM=       19 NQMF=       0 NMMI=      0 NMMIF=      0
                NMic=       0 NMicF=      0.
                    Isotopes and Nuclear Properties:
 (Nuclear quadrupole moments (NQMom) in fm**2, nuclear magnetic moments (NMagM)
  in nuclear magnetons)

  Atom         1           2           3           4           5           6           7           8           9          10
 IAtWgt=         202          16           1           1          16           1           1          16           1           1
 AtmWgt= 201.9706000  15.9949146   1.0078250   1.0078250  15.9949146   1.0078250   1.0078250  15.9949146   1.0078250   1.0078250
 NucSpn=           0           0           1           1           0           1           1           0           1           1
 AtZEff=  -0.0000000  -0.0000000  -0.0000000  -0.0000000  -0.0000000  -0.0000000  -0.0000000  -0.0000000  -0.0000000  -0.0000000
 NQMom=    0.0000000   0.0000000   0.0000000   0.0000000   0.0000000   0.0000000   0.0000000   0.0000000   0.0000000   0.0000000
 NMagM=    0.0000000   0.0000000   2.7928460   2.7928460   0.0000000   2.7928460   2.7928460   0.0000000   2.7928460   2.7928460
 AtZNuc=  80.0000000   8.0000000   1.0000000   1.0000000   8.0000000   1.0000000   1.0000000   8.0000000   1.0000000   1.0000000

  Atom        11          12          13          14          15          16          17          18          19
 IAtWgt=          16           1           1          16           1           1          16           1           1
 AtmWgt=  15.9949146   1.0078250   1.0078250  15.9949146   1.0078250   1.0078250  15.9949146   1.0078250   1.0078250
 NucSpn=           0           1           1           0           1           1           0           1           1
 AtZEff=  -0.0000000  -0.0000000  -0.0000000  -0.0000000  -0.0000000  -0.0000000  -0.0000000  -0.0000000  -0.0000000
 NQMom=    0.0000000   0.0000000   0.0000000   0.0000000   0.0000000   0.0000000   0.0000000   0.0000000   0.0000000
 NMagM=    0.0000000   2.7928460   2.7928460   0.0000000   2.7928460   2.7928460   0.0000000   2.7928460   2.7928460
 AtZNuc=   8.0000000   1.0000000   1.0000000   8.0000000   1.0000000   1.0000000   8.0000000   1.0000000   1.0000000
 Leave Link  101 at Wed May 11 22:11:31 2022, MaxMem= 67108864000 cpu:               2.4 elap:               0.1
 (Enter /cm/shared/apps/gaussian/intel/EM64T/SSE4_2-enabled/binary//g16/l103.exe)

 GradGradGradGradGradGradGradGradGradGradGradGradGradGradGradGradGradGrad
 Berny optimization.
 Initialization pass.
 Trust Radius=3.00D-01 FncErr=1.00D-07 GrdErr=1.00D-07 EigMax=2.50D+02 EigMin=1.00D-04
 Number of steps in this run=      2 maximum allowed number of steps=      2.
 GradGradGradGradGradGradGradGradGradGradGradGradGradGradGradGradGradGrad

 Leave Link  103 at Wed May 11 22:11:31 2022, MaxMem= 67108864000 cpu:               0.5 elap:               0.0
 (Enter /cm/shared/apps/gaussian/intel/EM64T/SSE4_2-enabled/binary//g16/l202.exe)
                          Input orientation:                          
 ---------------------------------------------------------------------
 Center     Atomic      Atomic             Coordinates (Angstroms)
 Number     Number       Type             X           Y           Z
 ---------------------------------------------------------------------
      1         80           0        0.019920   -0.045971    0.461092
      2          8           0       -1.576592   -1.197886    0.695645
      3          1           0       -1.315724   -2.133407    0.621531
      4          1           0       -3.092845   -0.925663    0.858036
      5          8           0        3.404349    1.074523    1.924417
      6          1           0        4.281597    0.700128    1.735397
      7          1           0        3.552260    1.842694    2.502589
      8          8           0       -4.082973   -0.689737    1.005578
      9          1           0       -4.802080   -1.007120    0.221265
     10          1           0       -4.364781   -0.936324    1.904891
     11          8           0        2.026289    1.884793   -2.142960
     12          1           0        2.578702    1.381070   -2.764452
     13          1           0        2.169218    2.824770   -2.346941
     14          8           0       -5.627598   -1.287529   -0.799346
     15          1           0       -6.242557   -0.585068   -1.076993
     16          1           0       -6.128190   -2.122370   -0.797670
     17          8           0        1.551524    1.236756    0.244368
     18          1           0        2.368261    1.155587    0.906125
     19          1           0        1.818232    1.478313   -0.738391
 ---------------------------------------------------------------------
                    Distance matrix (angstroms):
                    1          2          3          4          5
     1  Hg   0.000000
     2  O    1.982618   0.000000
     3  H    2.483360   0.974035   0.000000
     4  H    3.258946   1.549032   2.161652   0.000000
     5  O    3.853724   5.611016   5.853838   6.881238   0.000000
     6  H    4.510256   6.245152   6.371783   7.602326   0.972350
     7  H    4.495797   6.230192   6.560871   7.384157   0.972752
     8  O    4.188631   2.576086   3.144732   1.028486   7.747056
     9  H    4.922703   3.265762   3.685568   1.825814   8.635939
    10  H    4.701371   3.050359   3.518063   1.647374   8.025165
    11  O    3.812408   5.526422   5.912478   6.565834   4.370257
    12  H    4.357516   5.990806   6.243635   7.114062   4.770865
    13  H    4.554743   6.282530   6.748345   7.212970   4.778432
    14  O    5.918161   4.318991   4.618080   3.050055   9.724929
    15  H    6.471086   5.028819   5.436545   3.712281  10.238432
    16  H    6.610232   4.878699   5.017378   3.658796  10.416294
    17  O    2.009520   3.989517   4.440874   5.159729   2.506361
    18  H    2.675164   4.598370   4.946738   5.844450   1.454981
    19  H    2.645019   4.554485   4.971478   5.696170   3.125598
                    6          7          8          9         10
     6  H    0.000000
     7  H    1.557554   0.000000
     8  O    8.510605   8.182361   0.000000
     9  H    9.365921   9.117065   1.110403   0.000000
    10  H    8.801509   8.411880   0.974158   1.740930   0.000000
    11  O    4.640205   4.889937   7.339249   7.783273   8.074006
    12  H    4.859236   5.376117   7.929646   8.312274   8.682456
    13  H    5.063767   5.137628   7.917136   8.359310   8.655463
    14  O   10.419590  10.245529   2.449688   1.342295   3.005154
    15  H   10.969006  10.707281   3.001976   1.984585   3.541335
    16  H   11.079106  10.969255   3.080106   2.010119   3.438045
    17  O    3.156649   3.077282   6.003197   6.738234   6.517843
    18  H    2.134476   2.103014   6.710703   7.520647   7.120918
    19  H    3.576782   3.693721   6.524269   7.136305   7.144723
                   11         12         13         14         15
    11  O    0.000000
    12  H    0.972188   0.000000
    13  H    0.972416   1.557646   0.000000
    14  O    8.393504   8.850222   8.949659   0.000000
    15  H    8.695419   9.193902   9.165027   0.974019   0.000000
    16  H    9.184916   9.589176   9.783732   0.973424   1.566652
    17  O    2.518867   3.182596   3.101325   7.681220   8.112505
    18  H    3.153665   3.683512   3.661725   8.532948   9.006044
    19  H    1.476932   2.166263   2.126869   7.943172   8.327575
                   16         17         18         19
    16  H    0.000000
    17  O    8.446750   0.000000
    18  H    9.264858   1.054310   0.000000
    19  H    8.724337   1.046565   1.763836   0.000000
 Stoichiometry    H12HgO6(2+)
 Framework group  C1[X(H12HgO6)]
 Deg. of freedom    51
 Full point group                 C1      NOp   1
 Largest Abelian subgroup         C1      NOp   1
 Largest concise Abelian subgroup C1      NOp   1
                         Standard orientation:                         
 ---------------------------------------------------------------------
 Center     Atomic      Atomic             Coordinates (Angstroms)
 Number     Number       Type             X           Y           Z
 ---------------------------------------------------------------------
      1         80           0        0.280173   -0.184950   -0.129223
      2          8           0       -1.588125   -0.671215   -0.580646
      3          1           0       -1.636242   -0.943126   -1.514720
      4          1           0       -2.936331   -0.608605    0.179566
      5          8           0        3.892283   -1.441982    0.343767
      6          1           0        4.601142   -1.463498   -0.321455
      7          1           0        4.292778   -1.731964    1.181479
      8          8           0       -3.797103   -0.586647    0.742036
      9          1           0       -4.605301    0.096425    0.405550
     10          1           0       -4.111702   -1.490390    0.924413
     11          8           0        2.702158    2.753347    0.057469
     12          1           0        3.047718    3.118383   -0.774688
     13          1           0        3.125568    3.254781    0.775021
     14          8           0       -5.510814    1.021879    0.051521
     15          1           0       -5.883567    1.571604    0.763961
     16          1           0       -6.247482    0.774465   -0.534705
     17          8           0        2.128467    0.334622    0.464090
     18          1           0        2.900302   -0.378040    0.374903
     19          1           0        2.424364    1.315965    0.252645
 ---------------------------------------------------------------------
 Rotational constants (GHZ):           1.9712372           0.3532170           0.3105902
 Leave Link  202 at Wed May 11 22:11:31 2022, MaxMem= 67108864000 cpu:               0.4 elap:               0.0
 (Enter /cm/shared/apps/gaussian/intel/EM64T/SSE4_2-enabled/binary//g16/l301.exe)
 Standard basis: SDDAll (6D, 10F)
 Ernie: Thresh=  0.10000D-02 Tol=  0.10000D-05 Strict=F.
 There are   129 symmetry adapted cartesian basis functions of A   symmetry.
 There are   129 symmetry adapted basis functions of A   symmetry.
   129 basis functions,   227 primitive gaussians,   129 cartesian basis functions
    33 alpha electrons       33 beta electrons
       nuclear repulsion energy       310.2003049719 Hartrees.
 IExCor=    0 DFT=F Ex=HF Corr=None ExCW=0 ScaHFX=  1.000000
 ScaDFX=  1.000000  1.000000  1.000000  1.000000 ScalE2=  1.000000  1.000000
 IRadAn=      5 IRanWt=     -1 IRanGd=            0 ICorTp=0 IEmpDi=  4
 NAtoms=   19 NActive=   19 NUniq=   19 SFac= 1.00D+00 NAtFMM=   60 NAOKFM=F Big=F
 Integral buffers will be    131072 words long.
 Raffenetti 1 integral format.
 Two-electron integral symmetry is turned on.
 Leave Link  301 at Wed May 11 22:11:31 2022, MaxMem= 67108864000 cpu:               1.6 elap:               0.1
 (Enter /cm/shared/apps/gaussian/intel/EM64T/SSE4_2-enabled/binary//g16/l302.exe)
 NPDir=0 NMtPBC=     1 NCelOv=     1 NCel=       1 NClECP=     1 NCelD=      1
         NCelK=      1 NCelE2=     1 NClLst=     1 CellRange=     0.0.
 One-electron integrals computed using PRISM.
 One-electron integral symmetry used in STVInt
   1 Symmetry operations used in ECPInt.
 ECPInt:  NShTT=    2346 NPrTT=    7709 LenC2=    2212 LenP2D=    5484.
 LDataN:  DoStor=T MaxTD1= 7 Len=  274
 NBasis=   129 RedAO= T EigKep=  3.83D-04  NBF=   129
 NBsUse=   129 1.00D-06 EigRej= -1.00D+00 NBFU=   129
 Leave Link  302 at Wed May 11 22:11:32 2022, MaxMem= 67108864000 cpu:               7.1 elap:               0.3
 (Enter /cm/shared/apps/gaussian/intel/EM64T/SSE4_2-enabled/binary//g16/l303.exe)
 DipDrv:  MaxL=1.
 Leave Link  303 at Wed May 11 22:11:32 2022, MaxMem= 67108864000 cpu:               2.4 elap:               0.1
 (Enter /cm/shared/apps/gaussian/intel/EM64T/SSE4_2-enabled/binary//g16/l401.exe)
 ExpMin= 2.00D-02 ExpMax= 4.71D+01 ExpMxC= 4.71D+01 IAcc=3 IRadAn=         5 AccDes= 0.00D+00
 Harris functional with IExCor=  205 and IRadAn=       5 diagonalized for initial guess.
 HarFok:  IExCor=  205 AccDes= 0.00D+00 IRadAn=         5 IDoV= 1 UseB2=F ITyADJ=14
 ICtDFT=  3500011 ScaDFX=  1.000000  1.000000  1.000000  1.000000
 Defaulting to unpruned grid for atomic number  80.
 FoFCou: FMM=F IPFlag=           0 FMFlag=      100000 FMFlg1=           0
         NFxFlg=           0 DoJE=T BraDBF=F KetDBF=T FulRan=T
         wScrn=  0.000000 ICntrl=       500 IOpCl=  0 I1Cent=   200000004 NGrid=           0
         NMat0=    1 NMatS0=      1 NMatT0=    0 NMatD0=    1 NMtDS0=    0 NMtDT0=    0
 Petite list used in FoFCou.
 Harris En= -257.168860104572    
 JPrj=0 DoOrth=F DoCkMO=F.
 Leave Link  401 at Wed May 11 22:11:32 2022, MaxMem= 67108864000 cpu:               8.1 elap:               0.3
 (Enter /cm/shared/apps/gaussian/intel/EM64T/SSE4_2-enabled/binary//g16/l502.exe)
 Integral symmetry usage will be decided dynamically.
 Closed shell SCF:
 Using DIIS extrapolation, IDIIS=  1040.
 NGot= 67108864000 LenX= 67108825412 LenY= 67108808330
 Requested convergence on RMS density matrix=1.00D-08 within 128 cycles.
 Requested convergence on MAX density matrix=1.00D-06.
 Requested convergence on             energy=1.00D-06.
 No special actions if energy rises.
 Fock matrices will be formed incrementally for  20 cycles.

 Cycle   1  Pass 0  IDiag  1:
 FoFJK:  IHMeth= 1 ICntrl=       0 DoSepK=F KAlg= 0 I1Cent=           0 FoldK=F
 IRaf= 880000000 NMat=       1 IRICut=       1 DoRegI=T DoRafI=F ISym2E= 0 IDoP0=0 IntGTp=1.
 FoFCou: FMM=F IPFlag=           0 FMFlag=      100000 FMFlg1=           0
         NFxFlg=           0 DoJE=F BraDBF=F KetDBF=F FulRan=T
         wScrn=  0.000000 ICntrl=         0 IOpCl=  0 I1Cent=           0 NGrid=           0
         NMat0=    1 NMatS0=      1 NMatT0=    0 NMatD0=    1 NMtDS0=    0 NMtDT0=    0
 Symmetry not used in FoFCou.
 E= -252.946989034506    
 DIIS: error= 4.35D-02 at cycle   1 NSaved=   1.
 NSaved= 1 IEnMin= 1 EnMin= -252.946989034506     IErMin= 1 ErrMin= 4.35D-02
 ErrMax= 4.35D-02  0.00D+00 EMaxC= 1.00D-01 BMatC= 6.28D-01 BMatP= 6.28D-01
 IDIUse=3 WtCom= 5.65D-01 WtEn= 4.35D-01
 Coeff-Com:  0.100D+01
 Coeff-En:   0.100D+01
 Coeff:      0.100D+01
 Gap=     0.695 Goal=   None    Shift=    0.000
 GapD=    0.695 DampG=2.000 DampE=0.250 DampFc=0.5000 IDamp=-1.
 Damping current iteration by 5.00D-01
 RMSDP=7.96D-03 MaxDP=2.41D-01              OVMax= 2.41D-01

 Cycle   2  Pass 0  IDiag  1:
 RMSU=  3.94D-03    CP:  1.02D+00
 E= -253.214675062690     Delta-E=       -0.267686028184 Rises=F Damp=T
 DIIS: error= 1.19D-02 at cycle   2 NSaved=   2.
 NSaved= 2 IEnMin= 2 EnMin= -253.214675062690     IErMin= 2 ErrMin= 1.19D-02
 ErrMax= 1.19D-02  0.00D+00 EMaxC= 1.00D-01 BMatC= 3.79D-02 BMatP= 6.28D-01
 IDIUse=3 WtCom= 8.81D-01 WtEn= 1.19D-01
 Coeff-Com: -0.228D+00 0.123D+01
 Coeff-En:   0.000D+00 0.100D+01
 Coeff:     -0.201D+00 0.120D+01
 Gap=     0.566 Goal=   None    Shift=    0.000
 RMSDP=2.39D-03 MaxDP=6.39D-02 DE=-2.68D-01 OVMax= 7.39D-02

 Cycle   3  Pass 0  IDiag  1:
 RMSU=  2.13D-03    CP:  1.01D+00  1.26D+00
 E= -253.441083260095     Delta-E=       -0.226408197405 Rises=F Damp=F
 DIIS: error= 2.93D-03 at cycle   3 NSaved=   3.
 NSaved= 3 IEnMin= 3 EnMin= -253.441083260095     IErMin= 3 ErrMin= 2.93D-03
 ErrMax= 2.93D-03  0.00D+00 EMaxC= 1.00D-01 BMatC= 3.29D-03 BMatP= 3.79D-02
 IDIUse=3 WtCom= 9.71D-01 WtEn= 2.93D-02
 Coeff-Com:  0.331D-01-0.796D-01 0.105D+01
 Coeff-En:   0.000D+00 0.000D+00 0.100D+01
 Coeff:      0.321D-01-0.773D-01 0.105D+01
 Gap=     0.560 Goal=   None    Shift=    0.000
 RMSDP=9.11D-04 MaxDP=3.28D-02 DE=-2.26D-01 OVMax= 1.78D-02

 Cycle   4  Pass 0  IDiag  1:
 RMSU=  5.16D-04    CP:  1.00D+00  1.20D+00  1.31D+00
 E= -253.444613843057     Delta-E=       -0.003530582962 Rises=F Damp=F
 DIIS: error= 1.87D-03 at cycle   4 NSaved=   4.
 NSaved= 4 IEnMin= 4 EnMin= -253.444613843057     IErMin= 4 ErrMin= 1.87D-03
 ErrMax= 1.87D-03  0.00D+00 EMaxC= 1.00D-01 BMatC= 6.48D-04 BMatP= 3.29D-03
 IDIUse=3 WtCom= 9.81D-01 WtEn= 1.87D-02
 Coeff-Com:  0.362D-01-0.156D+00 0.335D+00 0.785D+00
 Coeff-En:   0.000D+00 0.000D+00 0.000D+00 0.100D+01
 Coeff:      0.356D-01-0.153D+00 0.329D+00 0.789D+00
 Gap=     0.552 Goal=   None    Shift=    0.000
 RMSDP=3.51D-04 MaxDP=1.06D-02 DE=-3.53D-03 OVMax= 1.47D-02

 Cycle   5  Pass 0  IDiag  1:
 RMSU=  2.01D-04    CP:  1.00D+00  1.20D+00  1.44D+00  1.09D+00
 E= -253.445562258174     Delta-E=       -0.000948415117 Rises=F Damp=F
 DIIS: error= 4.84D-04 at cycle   5 NSaved=   5.
 NSaved= 5 IEnMin= 5 EnMin= -253.445562258174     IErMin= 5 ErrMin= 4.84D-04
 ErrMax= 4.84D-04  0.00D+00 EMaxC= 1.00D-01 BMatC= 4.38D-05 BMatP= 6.48D-04
 IDIUse=3 WtCom= 9.95D-01 WtEn= 4.84D-03
 Coeff-Com: -0.155D-01 0.543D-01-0.142D+00-0.156D+00 0.126D+01
 Coeff-En:   0.000D+00 0.000D+00 0.000D+00 0.000D+00 0.100D+01
 Coeff:     -0.154D-01 0.541D-01-0.142D+00-0.155D+00 0.126D+01
 Gap=     0.548 Goal=   None    Shift=    0.000
 RMSDP=1.72D-04 MaxDP=4.43D-03 DE=-9.48D-04 OVMax= 5.83D-03

 Cycle   6  Pass 0  IDiag  1:
 RMSU=  6.08D-05    CP:  9.99D-01  1.20D+00  1.49D+00  1.24D+00  1.43D+00
 E= -253.445707917488     Delta-E=       -0.000145659315 Rises=F Damp=F
 DIIS: error= 1.59D-04 at cycle   6 NSaved=   6.
 NSaved= 6 IEnMin= 6 EnMin= -253.445707917488     IErMin= 6 ErrMin= 1.59D-04
 ErrMax= 1.59D-04  0.00D+00 EMaxC= 1.00D-01 BMatC= 1.15D-05 BMatP= 4.38D-05
 IDIUse=3 WtCom= 9.98D-01 WtEn= 1.59D-03
 Coeff-Com: -0.881D-02 0.347D-01-0.106D+00-0.154D+00 0.403D+00 0.831D+00
 Coeff-En:   0.000D+00 0.000D+00 0.000D+00 0.000D+00 0.000D+00 0.100D+01
 Coeff:     -0.880D-02 0.346D-01-0.106D+00-0.153D+00 0.403D+00 0.831D+00
 Gap=     0.547 Goal=   None    Shift=    0.000
 RMSDP=7.37D-05 MaxDP=1.95D-03 DE=-1.46D-04 OVMax= 2.69D-03

 Cycle   7  Pass 0  IDiag  1:
 RMSU=  1.98D-05    CP:  9.99D-01  1.20D+00  1.51D+00  1.29D+00  1.59D+00
                    CP:  1.24D+00
 E= -253.445729505046     Delta-E=       -0.000021587558 Rises=F Damp=F
 DIIS: error= 4.86D-05 at cycle   7 NSaved=   7.
 NSaved= 7 IEnMin= 7 EnMin= -253.445729505046     IErMin= 7 ErrMin= 4.86D-05
 ErrMax= 4.86D-05  0.00D+00 EMaxC= 1.00D-01 BMatC= 6.78D-07 BMatP= 1.15D-05
 IDIUse=1 WtCom= 1.00D+00 WtEn= 0.00D+00
 Coeff-Com:  0.279D-02-0.774D-02 0.181D-01 0.318D-01-0.157D+00-0.114D+00
 Coeff-Com:  0.123D+01
 Coeff:      0.279D-02-0.774D-02 0.181D-01 0.318D-01-0.157D+00-0.114D+00
 Coeff:      0.123D+01
 Gap=     0.547 Goal=   None    Shift=    0.000
 RMSDP=2.17D-05 MaxDP=5.40D-04 DE=-2.16D-05 OVMax= 7.48D-04

 Cycle   8  Pass 0  IDiag  1:
 RMSU=  5.44D-06    CP:  9.99D-01  1.20D+00  1.52D+00  1.31D+00  1.63D+00
                    CP:  1.40D+00  1.27D+00
 E= -253.445730999611     Delta-E=       -0.000001494565 Rises=F Damp=F
 DIIS: error= 1.11D-05 at cycle   8 NSaved=   8.
 NSaved= 8 IEnMin= 8 EnMin= -253.445730999611     IErMin= 8 ErrMin= 1.11D-05
 ErrMax= 1.11D-05  0.00D+00 EMaxC= 1.00D-01 BMatC= 4.12D-08 BMatP= 6.78D-07
 IDIUse=1 WtCom= 1.00D+00 WtEn= 0.00D+00
 Coeff-Com:  0.638D-03-0.192D-02 0.639D-02 0.855D-02-0.410D-01-0.339D-01
 Coeff-Com:  0.231D+00 0.830D+00
 Coeff:      0.638D-03-0.192D-02 0.639D-02 0.855D-02-0.410D-01-0.339D-01
 Coeff:      0.231D+00 0.830D+00
 Gap=     0.547 Goal=   None    Shift=    0.000
 RMSDP=1.89D-06 MaxDP=3.96D-05 DE=-1.49D-06 OVMax= 5.52D-05

 Initial convergence to 1.0D-05 achieved.  Increase integral accuracy.
 Cycle   9  Pass 1  IDiag  1:
 E= -253.445731050547     Delta-E=       -0.000000050936 Rises=F Damp=F
 DIIS: error= 5.10D-06 at cycle   1 NSaved=   1.
 NSaved= 1 IEnMin= 1 EnMin= -253.445731050547     IErMin= 1 ErrMin= 5.10D-06
 ErrMax= 5.10D-06  0.00D+00 EMaxC= 1.00D-01 BMatC= 6.81D-09 BMatP= 6.81D-09
 IDIUse=1 WtCom= 1.00D+00 WtEn= 0.00D+00
 Coeff-Com:  0.100D+01
 Coeff:      0.100D+01
 Gap=     0.547 Goal=   None    Shift=    0.000
 RMSDP=1.89D-06 MaxDP=3.96D-05 DE=-5.09D-08 OVMax= 3.59D-05

 Cycle  10  Pass 1  IDiag  1:
 RMSU=  8.21D-07    CP:  1.00D+00
 E= -253.445731060333     Delta-E=       -0.000000009785 Rises=F Damp=F
 DIIS: error= 3.06D-06 at cycle   2 NSaved=   2.
 NSaved= 2 IEnMin= 2 EnMin= -253.445731060333     IErMin= 2 ErrMin= 3.06D-06
 ErrMax= 3.06D-06  0.00D+00 EMaxC= 1.00D-01 BMatC= 2.24D-09 BMatP= 6.81D-09
 IDIUse=1 WtCom= 1.00D+00 WtEn= 0.00D+00
 Coeff-Com:  0.292D+00 0.708D+00
 Coeff:      0.292D+00 0.708D+00
 Gap=     0.547 Goal=   None    Shift=    0.000
 RMSDP=3.10D-07 MaxDP=8.88D-06 DE=-9.79D-09 OVMax= 1.19D-05

 Cycle  11  Pass 1  IDiag  1:
 RMSU=  3.01D-07    CP:  1.00D+00  1.09D+00
 E= -253.445731062986     Delta-E=       -0.000000002653 Rises=F Damp=F
 DIIS: error= 1.15D-06 at cycle   3 NSaved=   3.
 NSaved= 3 IEnMin= 3 EnMin= -253.445731062986     IErMin= 3 ErrMin= 1.15D-06
 ErrMax= 1.15D-06  0.00D+00 EMaxC= 1.00D-01 BMatC= 3.59D-10 BMatP= 2.24D-09
 IDIUse=1 WtCom= 1.00D+00 WtEn= 0.00D+00
 Coeff-Com: -0.337D+00-0.177D+00 0.151D+01
 Coeff:     -0.337D+00-0.177D+00 0.151D+01
 Gap=     0.547 Goal=   None    Shift=    0.000
 RMSDP=3.62D-07 MaxDP=1.14D-05 DE=-2.65D-09 OVMax= 1.95D-05

 Cycle  12  Pass 1  IDiag  1:
 RMSU=  1.03D-07    CP:  1.00D+00  1.46D+00  1.56D+00
 E= -253.445731064080     Delta-E=       -0.000000001095 Rises=F Damp=F
 DIIS: error= 2.16D-07 at cycle   4 NSaved=   4.
 NSaved= 4 IEnMin= 4 EnMin= -253.445731064080     IErMin= 4 ErrMin= 2.16D-07
 ErrMax= 2.16D-07  0.00D+00 EMaxC= 1.00D-01 BMatC= 1.18D-11 BMatP= 3.59D-10
 IDIUse=1 WtCom= 1.00D+00 WtEn= 0.00D+00
 Coeff-Com: -0.812D-01-0.579D-01 0.332D+00 0.808D+00
 Coeff:     -0.812D-01-0.579D-01 0.332D+00 0.808D+00
 Gap=     0.547 Goal=   None    Shift=    0.000
 RMSDP=4.27D-08 MaxDP=1.42D-06 DE=-1.09D-09 OVMax= 2.37D-06

 Cycle  13  Pass 1  IDiag  1:
 RMSU=  2.78D-08    CP:  1.00D+00  1.47D+00  1.62D+00  1.24D+00
 E= -253.445731064105     Delta-E=       -0.000000000025 Rises=F Damp=F
 DIIS: error= 8.04D-08 at cycle   5 NSaved=   5.
 NSaved= 5 IEnMin= 5 EnMin= -253.445731064105     IErMin= 5 ErrMin= 8.04D-08
 ErrMax= 8.04D-08  0.00D+00 EMaxC= 1.00D-01 BMatC= 2.14D-12 BMatP= 1.18D-11
 IDIUse=1 WtCom= 1.00D+00 WtEn= 0.00D+00
 Coeff-Com:  0.841D-01 0.445D-01-0.376D+00-0.413D-01 0.129D+01
 Coeff:      0.841D-01 0.445D-01-0.376D+00-0.413D-01 0.129D+01
 Gap=     0.547 Goal=   None    Shift=    0.000
 RMSDP=3.63D-08 MaxDP=1.14D-06 DE=-2.48D-11 OVMax= 1.73D-06

 Cycle  14  Pass 1  IDiag  1:
 RMSU=  8.38D-09    CP:  1.00D+00  1.48D+00  1.65D+00  1.56D+00  1.40D+00
 E= -253.445731064103     Delta-E=        0.000000000002 Rises=F Damp=F
 DIIS: error= 1.95D-08 at cycle   6 NSaved=   6.
 NSaved= 6 IEnMin= 5 EnMin= -253.445731064105     IErMin= 6 ErrMin= 1.95D-08
 ErrMax= 1.95D-08  0.00D+00 EMaxC= 1.00D-01 BMatC= 1.09D-13 BMatP= 2.14D-12
 IDIUse=1 WtCom= 1.00D+00 WtEn= 0.00D+00
 Coeff-Com:  0.182D-01 0.105D-01-0.808D-01-0.306D-01 0.225D+00 0.858D+00
 Coeff:      0.182D-01 0.105D-01-0.808D-01-0.306D-01 0.225D+00 0.858D+00
 Gap=     0.547 Goal=   None    Shift=    0.000
 RMSDP=4.74D-09 MaxDP=1.42D-07 DE= 1.82D-12 OVMax= 2.64D-07

 SCF Done:  E(RHF) =  -253.445731064     A.U. after   14 cycles
            NFock= 14  Conv=0.47D-08     -V/T= 2.9206
 KE= 1.319623241120D+02 PE=-1.166302048267D+03 EE= 4.706936881188D+02
 Leave Link  502 at Wed May 11 22:11:34 2022, MaxMem= 67108864000 cpu:              59.4 elap:               2.1
 (Enter /cm/shared/apps/gaussian/intel/EM64T/SSE4_2-enabled/binary//g16/l801.exe)
 Range of M.O.s used for correlation:     1   129
 NBasis=   129 NAE=    33 NBE=    33 NFC=     0 NFV=     0
 NROrb=    129 NOA=    33 NOB=    33 NVA=    96 NVB=    96

 **** Warning!!: The largest alpha MO coefficient is  0.28653664D+02

 Leave Link  801 at Wed May 11 22:11:34 2022, MaxMem= 67108864000 cpu:               0.7 elap:               0.0
 (Enter /cm/shared/apps/gaussian/intel/EM64T/SSE4_2-enabled/binary//g16/l906.exe)
 FulOut=F Deriv=T AODrv=T NAtomX=    19
   MMem=           0  MDisk=          33 MDiskD=          33
  W3Min=      549153 MinDsk=     1693460 NBas6D=         129
 NBas2D=        8499    NTT=        8385    LW2=     3308096
    MDV= 67108629485 MDiskM=     7225089 NBas2p=        7745
 Disk-based method using ON**2 memory for 33 occupieds at a time.
 Permanent disk used for amplitudes=    12443904 words.
 Estimated scratch disk usage=   126163713 words.
 IMap=   1   2   3   4   5   6   7   8   9  10  11  12  13  14  15  16  17  18  19  20
 IMap=  21  22  23  24  25  26  27  28  29  30  31  32  33
 Actual    scratch disk usage=   115175169 words.
 JobTyp=1 Pass  1:  I=   1 to  33 NPSUse= 28 ParTrn=T ParDer=T DoDerP=T.
 (rs|ai) integrals will be sorted in core.
 Spin components of T(2) and E(2):
     alpha-alpha T2 =       0.3661584250D-01 E2=     -0.1171706242D+00
     alpha-beta  T2 =       0.2137038653D+00 E2=     -0.6945943865D+00
     beta-beta   T2 =       0.3661584250D-01 E2=     -0.1171706242D+00
 The integrals were generated   1 times.
 ANorm=    0.1134431818D+01
 E2 =    -0.9289356349D+00 EUMP2 =    -0.25437466669902D+03
 Leave Link  906 at Wed May 11 22:11:49 2022, MaxMem= 67108864000 cpu:             411.5 elap:              14.7
 (Enter /cm/shared/apps/gaussian/intel/EM64T/SSE4_2-enabled/binary//g16/l1101.exe)
 Using compressed Sx but separate Hx and Fx, NAtomX=    19.
 Will process     20 centers per pass.
   1 Symmetry operations used in ECPInt.
 ECPInt:  NShTT=    2346 NPrTT=    7709 LenC2=    2212 LenP2D=    5484.
 LDataN:  DoStor=T MaxTD1= 8 Len=  415
 Leave Link 1101 at Wed May 11 22:11:50 2022, MaxMem= 67108864000 cpu:              12.6 elap:               0.5
 (Enter /cm/shared/apps/gaussian/intel/EM64T/SSE4_2-enabled/binary//g16/l1102.exe)
 Leave Link 1102 at Wed May 11 22:11:50 2022, MaxMem= 67108864000 cpu:               0.8 elap:               0.0
 (Enter /cm/shared/apps/gaussian/intel/EM64T/SSE4_2-enabled/binary//g16/l1110.exe)
 Forming Gx(P) for the SCF density, NAtomX=    19.
 Integral derivatives from FoFJK, PRISM(SPDF).
 Do as many integral derivatives as possible in FoFJK.
 G2DrvN: MDV=   67108862534.
 G2DrvN: will do    20 centers at a time, making    1 passes.
 Calling FoFCou, ICntrl=  3107 FMM=F I1Cent=   0 AccDes= 0.00D+00.
 FoFJK:  IHMeth= 1 ICntrl=    3107 DoSepK=F KAlg= 0 I1Cent=           0 FoldK=F
 IRaf=         0 NMat=       1 IRICut=       1 DoRegI=T DoRafI=F ISym2E= 0 IDoP0=0 IntGTp=1.
 FoFCou: FMM=F IPFlag=           0 FMFlag=      100000 FMFlg1=           0
         NFxFlg=           0 DoJE=F BraDBF=F KetDBF=F FulRan=T
         wScrn=  0.000000 ICntrl=      3107 IOpCl=  0 I1Cent=           0 NGrid=           0
         NMat0=    1 NMatS0=      1 NMatT0=    0 NMatD0=    1 NMtDS0=    0 NMtDT0=    0
 Symmetry not used in FoFCou.
 End of G2Drv F.D. properties file   721 does not exist.
 End of G2Drv F.D. properties file   722 does not exist.
 End of G2Drv F.D. properties file   788 does not exist.
 Leave Link 1110 at Wed May 11 22:11:50 2022, MaxMem= 67108864000 cpu:              11.9 elap:               0.5
 (Enter /cm/shared/apps/gaussian/intel/EM64T/SSE4_2-enabled/binary//g16/l1002.exe)
 Minotr:  Closed shell wavefunction.
          IDoAtm=1111111111111111111
          Direct CPHF calculation.
          Differentiating once with respect to electric field.
                with respect to dipole field.
          Differentiating once with respect to nuclear coordinates.
          Requested convergence is 1.0D-08 RMS, and 1.0D-07 maximum.
          Secondary convergence is 1.0D-12 RMS, and 1.0D-12 maximum.
          NewPWx=T KeepS1=T KeepF1=T KeepIn=T MapXYZ=F SortEE=F KeepMc=T.
 Keep R1 ints in memory in canonical form, NReq=41149787.
 FoFCou: FMM=F IPFlag=           0 FMFlag=           0 FMFlg1=           0
         NFxFlg=           0 DoJE=F BraDBF=F KetDBF=F FulRan=T
         wScrn=  0.000000 ICntrl=       600 IOpCl=  0 I1Cent=           0 NGrid=           0
         NMat0=    1 NMatS0=   8385 NMatT0=    0 NMatD0=    1 NMtDS0=    0 NMtDT0=    0
 Symmetry not used in FoFCou.
 Two-electron integral symmetry not used.
          MDV=   67108864000 using IRadAn=       1.
          Solving linear equations simultaneously, MaxMat=       0.
          There are    60 degrees of freedom in the 1st order CPHF.  IDoFFX=6 NUNeed=    60.
     57 vectors produced by pass  0 Test12= 5.28D-15 1.67D-09 XBig12= 1.30D+01 1.46D+00.
 AX will form    57 AO Fock derivatives at one time.
     57 vectors produced by pass  1 Test12= 5.28D-15 1.67D-09 XBig12= 3.02D-01 1.00D-01.
     57 vectors produced by pass  2 Test12= 5.28D-15 1.67D-09 XBig12= 5.94D-03 1.71D-02.
     57 vectors produced by pass  3 Test12= 5.28D-15 1.67D-09 XBig12= 4.12D-05 1.08D-03.
     57 vectors produced by pass  4 Test12= 5.28D-15 1.67D-09 XBig12= 2.39D-07 8.93D-05.
     57 vectors produced by pass  5 Test12= 5.28D-15 1.67D-09 XBig12= 1.47D-09 5.81D-06.
     31 vectors produced by pass  6 Test12= 5.28D-15 1.67D-09 XBig12= 6.66D-12 3.86D-07.
      3 vectors produced by pass  7 Test12= 5.28D-15 1.67D-09 XBig12= 2.69D-14 1.94D-08.
 InvSVY:  IOpt=1 It=  1 EMax= 1.33D-15
 Solved reduced A of dimension   376 with    60 vectors.
 FullF1:  Do perturbations      1 to      60.
 Saving first derivative matrices.
 End of Minotr F.D. properties file   721 does not exist.
 End of Minotr F.D. properties file   722 does not exist.
 End of Minotr F.D. properties file   788 does not exist.
 Leave Link 1002 at Wed May 11 22:11:52 2022, MaxMem= 67108864000 cpu:              48.0 elap:               1.7
 (Enter /cm/shared/apps/gaussian/intel/EM64T/SSE4_2-enabled/binary//g16/l811.exe)
 MDV= 67108864000.
 Form MO integral derivatives with frozen-active canonical formalism.
 MOERI=1 MOERIx=1 NAtoms=    19 NAtomX=    19.
 Discarding MO integrals.
 MO basis two electron integral derivatives will not be stored on disk.
 IAlg= 3 DoFC=T DoPWx=T Debug=F.
 Reordered first order wavefunction length =     20072448
 In DefCFB: NBatch=  1 ICI= 33 ICA= 96 LFMax= 96
            Large arrays: LIAPS=   210874752 LIARS=   111567456 words.
 In StABat: MaxSiz= 39 MinSiz= 13 NAtomB=  4
 DoIAMN: NPSUse= 28.
 Leave Link  811 at Wed May 11 22:12:33 2022, MaxMem= 67108864000 cpu:            1140.8 elap:              40.8
 (Enter /cm/shared/apps/gaussian/intel/EM64T/SSE4_2-enabled/binary//g16/l804.exe)
 Closed-shell transformation, MDV= 67108864000 ITran=4 ISComp=1.
 Semi-Direct transformation.
 ModeAB=           4 MOrb=            33 LenV=   67108322004
 LASXX=     28702344 LTotXX=    28702344 LenRXX=    58192761
 LTotAB=    29490417 MaxLAS=    32395770 LenRXY=           0
 NonZer=    86895105 LenScr=   131092480 LnRSAI=    32395770
 LnScr1=    49351680 LExtra=           0 Total=    271032691
 MaxDsk=          -1 SrtSym=           T ITran=            4
 DoSDTr:  NPSUse= 28
 JobTyp=0 Pass  1:  I=   1 to  33.
 (rs|ai) integrals will be sorted in core.
 Complete sort for first half transformation.
 First half transformation complete.
 Begin second half transformation for I=  10.
 Begin second half transformation for I=  20.
 Begin second half transformation for I=  30.
 Complete sort for second half transformation.
 Second half transformation complete.
 SymMOI:  orbitals are not symmetric.
 Spin components of T(2) and E(2):
     alpha-alpha T2 =       0.3661584250D-01 E2=     -0.1171706242D+00
     alpha-beta  T2 =       0.2137038653D+00 E2=     -0.6945943865D+00
     beta-beta   T2 =       0.3661584250D-01 E2=     -0.1171706242D+00
 ANorm=    0.1604328863D+01
 E2 =    -0.9289356349D+00 EUMP2 =    -0.25437466669902D+03
 Leave Link  804 at Wed May 11 22:12:38 2022, MaxMem= 67108864000 cpu:             142.0 elap:               5.1
 (Enter /cm/shared/apps/gaussian/intel/EM64T/SSE4_2-enabled/binary//g16/l1002.exe)
 Minotr:  Closed shell wavefunction.
          Computing MP2/KS-MP2 derivatives.
          Using Z-Vector for PSCF gradient.
          Skipping F1 and S1 gradient terms here.
          IDoAtm=1111111111111111111
          Using MO integrals in the linear equations.
          Forming densities via direct SCF.
          Differentiating once with respect to electric field.
                with respect to dipole field.
          Differentiating once with respect to nuclear coordinates.
          Requested convergence is 1.0D-10 RMS, and 1.0D-09 maximum.
          NewPWx=F KeepS1=T KeepF1=T KeepIn=T MapXYZ=F SortEE=F KeepMc=T.
          MDV=   67108864000 using IRadAn=       5.
          Solving linear equations separately, MaxMat=       0.
          There are     1 degrees of freedom in the 1st order CPHF.  IDoFFX=0 NUNeed=     1.
 FoFJK:  IHMeth= 1 ICntrl=       0 DoSepK=F KAlg= 0 I1Cent=           0 FoldK=F
 IRaf=         0 NMat=       1 IRICut=       1 DoRegI=T DoRafI=F ISym2E= 0 IDoP0=0 IntGTp=1.
 FoFCou: FMM=F IPFlag=           0 FMFlag=      100000 FMFlg1=           0
         NFxFlg=           0 DoJE=F BraDBF=F KetDBF=F FulRan=T
         wScrn=  0.000000 ICntrl=         0 IOpCl=  0 I1Cent=           0 NGrid=           0
         NMat0=    1 NMatS0=      1 NMatT0=    0 NMatD0=    1 NMtDS0=    0 NMtDT0=    0
 Symmetry not used in FoFCou.
 LinEq1:  Iter=  0 NonCon=     1 RMS=6.45D-03 Max=1.20D-01 NDo=     1
 LinEq1:  Iter=  1 NonCon=     1 RMS=1.40D-03 Max=9.60D-03 NDo=     1
 LinEq1:  Iter=  2 NonCon=     1 RMS=4.55D-04 Max=8.39D-03 NDo=     1
 LinEq1:  Iter=  3 NonCon=     1 RMS=1.67D-04 Max=2.25D-03 NDo=     1
 LinEq1:  Iter=  4 NonCon=     1 RMS=5.06D-05 Max=8.16D-04 NDo=     1
 LinEq1:  Iter=  5 NonCon=     1 RMS=1.33D-05 Max=1.95D-04 NDo=     1
 LinEq1:  Iter=  6 NonCon=     1 RMS=5.29D-06 Max=6.67D-05 NDo=     1
 LinEq1:  Iter=  7 NonCon=     1 RMS=1.13D-06 Max=1.40D-05 NDo=     1
 LinEq1:  Iter=  8 NonCon=     1 RMS=4.68D-07 Max=4.85D-06 NDo=     1
 LinEq1:  Iter=  9 NonCon=     1 RMS=9.79D-08 Max=1.17D-06 NDo=     1
 LinEq1:  Iter= 10 NonCon=     1 RMS=2.19D-08 Max=2.46D-07 NDo=     1
 LinEq1:  Iter= 11 NonCon=     1 RMS=9.05D-09 Max=1.25D-07 NDo=     1
 LinEq1:  Iter= 12 NonCon=     1 RMS=1.87D-09 Max=2.53D-08 NDo=     1
 LinEq1:  Iter= 13 NonCon=     1 RMS=3.20D-10 Max=5.97D-09 NDo=     1
 LinEq1:  Iter= 14 NonCon=     1 RMS=6.10D-11 Max=1.16D-09 NDo=     1
 LinEq1:  Iter= 15 NonCon=     0 RMS=2.85D-11 Max=4.58D-10 NDo=     1
 Linear equations converged to 1.000D-10 1.000D-09 after    15 iterations.
 End of Minotr F.D. properties file   721 does not exist.
 End of Minotr F.D. properties file   722 does not exist.
 End of Minotr F.D. properties file   788 does not exist.
 Leave Link 1002 at Wed May 11 22:12:40 2022, MaxMem= 67108864000 cpu:              67.4 elap:               2.5
 (Enter /cm/shared/apps/gaussian/intel/EM64T/SSE4_2-enabled/binary//g16/l1102.exe)
 Use density number 2.
 Symmetrizing basis deriv contribution to polar:
 IMax=3 JMax=2 DiffMx= 0.00D+00
 Leave Link 1102 at Wed May 11 22:12:40 2022, MaxMem= 67108864000 cpu:               0.8 elap:               0.1
 (Enter /cm/shared/apps/gaussian/intel/EM64T/SSE4_2-enabled/binary//g16/l1110.exe)
 Forming Gx(P) for generalized density number  2 NAtomX=    19.
 Integral derivatives from FoFJK, PRISM(SPDF).
 Do as many integral derivatives as possible in FoFJK.
 G2DrvN: MDV=   67108862534.
 G2DrvN: will do    20 centers at a time, making    1 passes.
 Calling FoFCou, ICntrl=  3107 FMM=F I1Cent=   0 AccDes= 0.00D+00.
 FoFJK:  IHMeth= 1 ICntrl=    3107 DoSepK=F KAlg= 0 I1Cent=           0 FoldK=F
 IRaf=         0 NMat=       1 IRICut=       1 DoRegI=T DoRafI=F ISym2E= 0 IDoP0=0 IntGTp=1.
 FoFCou: FMM=F IPFlag=           0 FMFlag=      100000 FMFlg1=           0
         NFxFlg=           0 DoJE=F BraDBF=F KetDBF=F FulRan=T
         wScrn=  0.000000 ICntrl=      3107 IOpCl=  0 I1Cent=           0 NGrid=           0
         NMat0=    1 NMatS0=      1 NMatT0=    0 NMatD0=    1 NMtDS0=    0 NMtDT0=    0
 Symmetry not used in FoFCou.
 End of G2Drv F.D. properties file   721 does not exist.
 End of G2Drv F.D. properties file   722 does not exist.
 End of G2Drv F.D. properties file   788 does not exist.
 Leave Link 1110 at Wed May 11 22:12:41 2022, MaxMem= 67108864000 cpu:              11.6 elap:               0.4
 (Enter /cm/shared/apps/gaussian/intel/EM64T/SSE4_2-enabled/binary//g16/l1112.exe)
 MP22nd: MDV=   67108864000
 This link is doing NAtomX=    19 total of    60 degrees of freedom.
 Using ON3 I/O method in MakUI.
 Using Ix for Sx.
 Using OV2 memory method for fx*t*t/D, MaxI=    33 DoOO2=F NP=  28.
 R2 and R3 integrals will be kept in memory, NReq=    71415045.
 FoFCou: FMM=F IPFlag=           0 FMFlag=           0 FMFlg1=           0
         NFxFlg=           0 DoJE=F BraDBF=F KetDBF=F FulRan=T
         wScrn=  0.000000 ICntrl=       600 IOpCl=  0 I1Cent=           0 NGrid=           0
         NMat0=    1 NMatS0=      1 NMatT0=    0 NMatD0=    1 NMtDS0=    0 NMtDT0=    0
 Symmetry not used in FoFCou.
 DD1Dir will call FoFMem   1 times, MxPair=      1122
 NAB=   561 NAA=     0 NBB=     0.
 Symmetry is being used.
 FoFJK:  IHMeth= 1 ICntrl=       0 DoSepK=F KAlg= 0 I1Cent=           0 FoldK=F
 IRaf=         0 NMat=      60 IRICut=     150 DoRegI=T DoRafI=T ISym2E= 2 IDoP0=0 IntGTp=1.
 Discarding MO integrals.
 Leave Link 1112 at Wed May 11 22:13:09 2022, MaxMem= 67108864000 cpu:             784.4 elap:              28.1
 (Enter /cm/shared/apps/gaussian/intel/EM64T/SSE4_2-enabled/binary//g16/l601.exe)
 Copying SCF densities to generalized density rwf, IOpCl= 0 IROHF=0.

 **********************************************************************

            Population analysis using the SCF density.

 **********************************************************************

 Orbital symmetries:
       Occupied  (A) (A) (A) (A) (A) (A) (A) (A) (A) (A) (A) (A)
                 (A) (A) (A) (A) (A) (A) (A) (A) (A) (A) (A) (A)
                 (A) (A) (A) (A) (A) (A) (A) (A) (A)
       Virtual   (A) (A) (A) (A) (A) (A) (A) (A) (A) (A) (A) (A)
                 (A) (A) (A) (A) (A) (A) (A) (A) (A) (A) (A) (A)
                 (A) (A) (A) (A) (A) (A) (A) (A) (A) (A) (A) (A)
                 (A) (A) (A) (A) (A) (A) (A) (A) (A) (A) (A) (A)
                 (A) (A) (A) (A) (A) (A) (A) (A) (A) (A) (A) (A)
                 (A) (A) (A) (A) (A) (A) (A) (A) (A) (A) (A) (A)
                 (A) (A) (A) (A) (A) (A) (A) (A) (A) (A) (A) (A)
                 (A) (A) (A) (A) (A) (A) (A) (A) (A) (A) (A) (A)
 The electronic state is 1-A.
 Alpha  occ. eigenvalues --   -5.40515  -3.40016  -3.39473  -3.39433  -1.70534
 Alpha  occ. eigenvalues --   -1.66269  -1.66140  -1.64682  -1.62317  -1.59072
 Alpha  occ. eigenvalues --   -1.06384  -1.05187  -1.04752  -1.03205  -1.01333
 Alpha  occ. eigenvalues --   -0.99597  -0.99404  -0.99305  -0.96833  -0.96165
 Alpha  occ. eigenvalues --   -0.96164  -0.91306  -0.89076  -0.87287  -0.84505
 Alpha  occ. eigenvalues --   -0.83460  -0.83234  -0.81176  -0.79630  -0.79123
 Alpha  occ. eigenvalues --   -0.78620  -0.77050  -0.76371
 Alpha virt. eigenvalues --   -0.21678  -0.17122  -0.16813  -0.13491  -0.12955
 Alpha virt. eigenvalues --   -0.09249  -0.08702  -0.07596  -0.06418  -0.04970
 Alpha virt. eigenvalues --   -0.04833  -0.04189  -0.03734  -0.02941  -0.01442
 Alpha virt. eigenvalues --   -0.00815   0.00081   0.00286   0.01412   0.01796
 Alpha virt. eigenvalues --    0.02690   0.03583   0.03978   0.04758   0.05721
 Alpha virt. eigenvalues --    0.05996   0.08090   0.09858   0.10455   0.11637
 Alpha virt. eigenvalues --    0.12534   0.13338   0.14527   0.15022   0.15920
 Alpha virt. eigenvalues --    0.17315   0.18489   0.18806   0.22584   0.23764
 Alpha virt. eigenvalues --    0.24725   0.28168   0.28309   0.30091   0.37907
 Alpha virt. eigenvalues --    0.64753   0.64896   0.70755   0.71446   0.93767
 Alpha virt. eigenvalues --    0.98416   1.04489   1.06304   1.07624   1.08891
 Alpha virt. eigenvalues --    1.09511   1.10046   1.10790   1.11390   1.12468
 Alpha virt. eigenvalues --    1.14883   1.15537   1.16879   1.17079   1.17298
 Alpha virt. eigenvalues --    1.17784   1.18594   1.19755   1.21419   1.22822
 Alpha virt. eigenvalues --    1.23483   1.25186   1.25903   1.29204   1.31448
 Alpha virt. eigenvalues --    1.31607   1.33055   1.36290   1.37832   1.39917
 Alpha virt. eigenvalues --    1.41243   1.45873   1.50878   1.59931   2.17281
 Alpha virt. eigenvalues --    2.30012   2.44436   2.65691   2.95133   3.12026
 Alpha virt. eigenvalues --    4.26445  15.50565  41.61413  41.61833  41.75956
 Alpha virt. eigenvalues --   81.48984
          Condensed to atoms (all electrons):
               1          2          3          4          5          6
     1  Hg  18.418133   0.161225  -0.017442   0.001225  -0.003608   0.000544
     2  O    0.161225   6.674931   0.245606   0.047225  -0.000052   0.000001
     3  H   -0.017442   0.245606   0.273440  -0.001545   0.000009   0.000000
     4  H    0.001225   0.047225  -0.001545   0.138686  -0.000000  -0.000000
     5  O   -0.003608  -0.000052   0.000009  -0.000000   6.390766   0.261943
     6  H    0.000544   0.000001   0.000000  -0.000000   0.261943   0.246673
     7  H    0.000810   0.000003  -0.000000   0.000000   0.263755  -0.015355
     8  O    0.000101  -0.013942   0.001603   0.175632   0.000000  -0.000000
     9  H    0.000075  -0.000166   0.000010  -0.000437  -0.000000  -0.000000
    10  H    0.000174   0.001633  -0.000002  -0.006880  -0.000000   0.000000
    11  O   -0.002666  -0.000015   0.000009  -0.000000  -0.001064   0.000054
    12  H    0.000253   0.000000   0.000000  -0.000000   0.000033   0.000000
    13  H    0.000934   0.000002  -0.000000   0.000000   0.000009  -0.000000
    14  O    0.000277  -0.001252   0.000071   0.000677  -0.000000   0.000000
    15  H    0.000019   0.000037   0.000000  -0.000005  -0.000000  -0.000000
    16  H    0.000035   0.000006   0.000000  -0.000006  -0.000000  -0.000000
    17  O    0.136918  -0.001165  -0.000232   0.000020  -0.031593   0.000523
    18  H   -0.003196  -0.000000  -0.000000   0.000000   0.047477  -0.000958
    19  H   -0.003567  -0.000018   0.000000   0.000000   0.000031   0.000000
               7          8          9         10         11         12
     1  Hg   0.000810   0.000101   0.000075   0.000174  -0.002666   0.000253
     2  O    0.000003  -0.013942  -0.000166   0.001633  -0.000015   0.000000
     3  H   -0.000000   0.001603   0.000010  -0.000002   0.000009   0.000000
     4  H    0.000000   0.175632  -0.000437  -0.006880  -0.000000  -0.000000
     5  O    0.263755   0.000000  -0.000000  -0.000000  -0.001064   0.000033
     6  H   -0.015355  -0.000000  -0.000000   0.000000   0.000054   0.000000
     7  H    0.242375  -0.000000   0.000000   0.000000  -0.000007  -0.000000
     8  O   -0.000000   6.408828   0.160059   0.251543   0.000001  -0.000000
     9  H    0.000000   0.160059   0.142689  -0.004823  -0.000000  -0.000000
    10  H    0.000000   0.251543  -0.004823   0.232988   0.000000  -0.000000
    11  O   -0.000007   0.000001  -0.000000   0.000000   6.399256   0.261978
    12  H   -0.000000  -0.000000  -0.000000  -0.000000   0.261978   0.249286
    13  H   -0.000000  -0.000000   0.000000   0.000000   0.264999  -0.015440
    14  O    0.000000  -0.058962   0.085622   0.000510  -0.000000  -0.000000
    15  H    0.000000   0.002369  -0.001674  -0.000021  -0.000000   0.000000
    16  H    0.000000   0.001187  -0.001753  -0.000008  -0.000000  -0.000000
    17  O    0.000585  -0.000020   0.000001   0.000001  -0.030233   0.000958
    18  H   -0.001082   0.000000  -0.000000   0.000000  -0.000122   0.000007
    19  H   -0.000009   0.000000  -0.000000  -0.000000   0.043000  -0.000859
              13         14         15         16         17         18
     1  Hg   0.000934   0.000277   0.000019   0.000035   0.136918  -0.003196
     2  O    0.000002  -0.001252   0.000037   0.000006  -0.001165  -0.000000
     3  H   -0.000000   0.000071   0.000000   0.000000  -0.000232  -0.000000
     4  H    0.000000   0.000677  -0.000005  -0.000006   0.000020   0.000000
     5  O    0.000009  -0.000000  -0.000000  -0.000000  -0.031593   0.047477
     6  H   -0.000000   0.000000  -0.000000  -0.000000   0.000523  -0.000958
     7  H   -0.000000   0.000000   0.000000   0.000000   0.000585  -0.001082
     8  O   -0.000000  -0.058962   0.002369   0.001187  -0.000020   0.000000
     9  H    0.000000   0.085622  -0.001674  -0.001753   0.000001  -0.000000
    10  H    0.000000   0.000510  -0.000021  -0.000008   0.000001   0.000000
    11  O    0.264999  -0.000000  -0.000000  -0.000000  -0.030233  -0.000122
    12  H   -0.015440  -0.000000   0.000000  -0.000000   0.000958   0.000007
    13  H    0.239813   0.000000  -0.000000   0.000000  -0.000163  -0.000013
    14  O    0.000000   6.345733   0.261841   0.260934   0.000001  -0.000000
    15  H   -0.000000   0.261841   0.237084  -0.012975  -0.000000   0.000000
    16  H    0.000000   0.260934  -0.012975   0.240213   0.000000  -0.000000
    17  O   -0.000163   0.000001  -0.000000   0.000000   6.663502   0.184230
    18  H   -0.000013  -0.000000   0.000000  -0.000000   0.184230   0.146643
    19  H   -0.000685  -0.000000   0.000000  -0.000000   0.188497  -0.003586
              19
     1  Hg  -0.003567
     2  O   -0.000018
     3  H    0.000000
     4  H    0.000000
     5  O    0.000031
     6  H    0.000000
     7  H   -0.000009
     8  O    0.000000
     9  H   -0.000000
    10  H   -0.000000
    11  O    0.043000
    12  H   -0.000859
    13  H   -0.000685
    14  O   -0.000000
    15  H    0.000000
    16  H   -0.000000
    17  O    0.188497
    18  H   -0.003586
    19  H    0.149601
 Mulliken charges:
               1
     1  Hg   1.309757
     2  O   -1.114059
     3  H    0.498473
     4  H    0.645406
     5  O   -0.927706
     6  H    0.506576
     7  H    0.508925
     8  O   -0.928398
     9  H    0.620398
    10  H    0.524884
    11  O   -0.935190
    12  H    0.503784
    13  H    0.510544
    14  O   -0.895451
    15  H    0.513325
    16  H    0.512367
    17  O   -1.111830
    18  H    0.630601
    19  H    0.627594
 Sum of Mulliken charges =   2.00000
 Mulliken charges with hydrogens summed into heavy atoms:
               1
     1  Hg   1.309757
     2  O   -0.615586
     5  O    0.087795
     8  O    0.862290
    11  O    0.079138
    14  O    0.130240
    17  O    0.146365
         Mulliken charges condensed to fragments:
      1      1.309757
      2      0.690243
 APT charges:
               1
     1  Hg   1.234767
     2  O   -0.877112
     3  H    0.278983
     4  H    0.785389
     5  O   -0.785480
     6  H    0.375688
     7  H    0.381269
     8  O   -1.014097
     9  H    0.879669
    10  H    0.410135
    11  O   -0.775606
    12  H    0.370584
    13  H    0.382522
    14  O   -0.815052
    15  H    0.403284
    16  H    0.400143
    17  O   -1.114945
    18  H    0.757352
    19  H    0.722508
 Sum of APT charges =   2.00000
 APT charges with hydrogens summed into heavy atoms:
               1
     1  Hg   1.234767
     2  O   -0.598129
     5  O   -0.028523
     8  O    1.061095
    11  O   -0.022500
    14  O   -0.011625
    17  O    0.364915
         APT charges condensed to fragments:
      1      1.234767
      2      0.765233
 Electronic spatial extent (au):  <R**2>=           2693.3826
 Charge=              2.0000 electrons
 Dipole moment (field-independent basis, Debye):
    X=             -3.8695    Y=              1.5351    Z=             -0.2226  Tot=              4.1688
 Quadrupole moment (field-independent basis, Debye-Ang):
   XX=            115.0355   YY=            -28.1737   ZZ=            -47.6577
   XY=              5.3920   XZ=             -1.9708   YZ=             -0.4735
 Traceless Quadrupole moment (field-independent basis, Debye-Ang):
   XX=            101.9675   YY=            -41.2418   ZZ=            -60.7257
   XY=              5.3920   XZ=             -1.9708   YZ=             -0.4735
 Octapole moment (field-independent basis, Debye-Ang**2):
  XXX=           -360.1100  YYY=             43.9913  ZZZ=            -16.4232  XYY=             62.2612
  XXY=             43.2307  XXZ=             39.0674  XZZ=             11.2304  YZZ=             -5.7744
  YYZ=              8.2814  XYZ=            -15.6736
 Hexadecapole moment (field-independent basis, Debye-Ang**3):
 XXXX=           2307.4501 YYYY=           -262.3951 ZZZZ=            -88.8987 XXXY=           -485.7779
 XXXZ=            -66.0814 YYYX=            217.4856 YYYZ=              0.6924 ZZZX=             17.2689
 ZZZY=              1.7704 XXYY=            -33.1597 XXZZ=           -351.2800 YYZZ=            -53.6899
 XXYZ=             -0.0255 YYXZ=            -18.7200 ZZXY=             -0.0339
 N-N= 3.102003049719D+02 E-N=-1.166302047353D+03  KE= 1.319623241120D+02
  Exact polarizability:  78.689   1.105  53.559   2.906  -0.008  46.475
 Approx polarizability:  42.238  -0.084  35.021   0.859   0.266  34.906
 No NMR shielding tensors so no spin-rotation constants.
 Leave Link  601 at Wed May 11 22:13:09 2022, MaxMem= 67108864000 cpu:               3.5 elap:               0.2
 (Enter /cm/shared/apps/gaussian/intel/EM64T/SSE4_2-enabled/binary//g16/l701.exe)
 ... and contract with generalized density number  2.
 Compute integral second derivatives.
   1 Symmetry operations used in ECPInt.
 ECPInt:  NShTT=    2346 NPrTT=    7709 LenC2=    2212 LenP2D=    5484.
 LDataN:  DoStor=T MaxTD1= 9 Len=  602
 Leave Link  701 at Wed May 11 22:13:11 2022, MaxMem= 67108864000 cpu:              37.7 elap:               1.4
 (Enter /cm/shared/apps/gaussian/intel/EM64T/SSE4_2-enabled/binary//g16/l702.exe)
 L702 exits ... SP integral derivatives will be done elsewhere.
 Leave Link  702 at Wed May 11 22:13:11 2022, MaxMem= 67108864000 cpu:               0.5 elap:               0.0
 (Enter /cm/shared/apps/gaussian/intel/EM64T/SSE4_2-enabled/binary//g16/l703.exe)
 Integral derivatives from FoFJK, PRISM(SPDF).
 Compute integral second derivatives, UseDBF=F ICtDFT=           0.
 Calling FoFJK, ICntrl=  10100127 FMM=F ISym2X=0 I1Cent= 0 IOpClX= 0 NMat=1 NMatS=1 NMatT=0.
 FoFJK:  IHMeth= 1 ICntrl=10100127 DoSepK=F KAlg= 0 I1Cent=           0 FoldK=F
 IRaf=         0 NMat=       1 IRICut=       1 DoRegI=T DoRafI=F ISym2E= 0 IDoP0=0 IntGTp=1.
 FoFCou: FMM=F IPFlag=           0 FMFlag=      100000 FMFlg1=         800
         NFxFlg=           0 DoJE=F BraDBF=F KetDBF=F FulRan=T
         wScrn=  0.000000 ICntrl=  10100127 IOpCl=  0 I1Cent=           0 NGrid=           0
         NMat0=    1 NMatS0=      1 NMatT0=    0 NMatD0=    1 NMtDS0=    0 NMtDT0=    0
 Symmetry not used in FoFCou.
 Leave Link  703 at Wed May 11 22:13:11 2022, MaxMem= 67108864000 cpu:              18.8 elap:               0.7
 (Enter /cm/shared/apps/gaussian/intel/EM64T/SSE4_2-enabled/binary//g16/l716.exe)
 Dipole        =-1.61496001D+00 6.12951622D-01-2.70232174D-02
 Polarizability= 7.86885175D+01 1.10506233D+00 5.35592858D+01
                 2.90640783D+00-7.86025934D-03 4.64751697D+01
 Full mass-weighted force constant matrix:
 Low frequencies --- -372.1113 -370.4823 -333.8740 -183.1170  -99.1922  -81.6464
 Low frequencies ---  -80.2425  -33.9094  -24.4902
 ******    7 imaginary frequencies (negative Signs) ****** 
 Diagonal vibrational polarizability:
      279.2792230     730.6537716     369.4602864
 Harmonic frequencies (cm**-1), IR intensities (KM/Mole), Raman scattering
 activities (A**4/AMU), depolarization ratios for plane and unpolarized
 incident light, reduced masses (AMU), force constants (mDyne/A),
 and normal coordinates:
                      1                      2                      3
                      A                      A                      A
 Frequencies --   -370.9969              -369.9884              -332.9431
 Red. masses --      1.0127                 1.0248                 1.0281
 Frc consts  --      0.0821                 0.0827                 0.0671
 IR Inten    --      5.6755                45.1829                54.0809
  Atom  AN      X      Y      Z        X      Y      Z        X      Y      Z
     1  80     0.00   0.00  -0.00    -0.00   0.00   0.00    -0.00   0.00  -0.00
     2   8    -0.00   0.00  -0.00     0.00   0.00  -0.00    -0.00   0.00  -0.01
     3   1    -0.00   0.02  -0.01     0.00   0.01  -0.00    -0.01   0.05  -0.02
     4   1     0.00  -0.00  -0.00    -0.00  -0.00  -0.00    -0.01  -0.01  -0.01
     5   8    -0.00  -0.00   0.00    -0.00  -0.00   0.02    -0.00  -0.00  -0.00
     6   1    -0.14  -0.24  -0.13    -0.29  -0.52  -0.26    -0.01  -0.01  -0.01
     7   1     0.16   0.25   0.02     0.32   0.54   0.06     0.01   0.01  -0.01
     8   8     0.00  -0.00  -0.00    -0.00  -0.00  -0.00     0.01   0.00   0.01
     9   1     0.00  -0.00   0.00    -0.00  -0.00  -0.00     0.01   0.02   0.04
    10   1     0.00  -0.01  -0.01    -0.00  -0.00  -0.01     0.00   0.01   0.02
    11   8    -0.00  -0.00  -0.01     0.00   0.00   0.02    -0.00   0.00   0.01
    12   1     0.57  -0.28   0.10    -0.27   0.14  -0.03     0.02  -0.00   0.02
    13   1    -0.55   0.28   0.11     0.26  -0.14  -0.03    -0.02   0.00   0.02
    14   8     0.00   0.00   0.01    -0.00  -0.00  -0.00    -0.01  -0.02  -0.03
    15   1    -0.01  -0.02   0.02    -0.00  -0.01   0.00     0.39   0.52  -0.24
    16   1     0.01   0.02  -0.01     0.00   0.00  -0.00    -0.33  -0.37   0.51
    17   8     0.00  -0.00   0.00     0.00  -0.00  -0.01    -0.00  -0.00   0.00
    18   1     0.00   0.00  -0.02     0.01   0.00  -0.06    -0.00  -0.00   0.00
    19   1     0.00   0.01   0.05    -0.00  -0.00  -0.03     0.00  -0.00   0.01
                      4                      5                      6
                      A                      A                      A
 Frequencies --   -176.7714               -97.1469               -79.7176
 Red. masses --      1.3213                 2.7852                 2.6157
 Frc consts  --      0.0243                 0.0155                 0.0098
 IR Inten    --     43.9796                 2.0828                47.8498
  Atom  AN      X      Y      Z        X      Y      Z        X      Y      Z
     1  80     0.00  -0.01   0.00    -0.00  -0.00  -0.01     0.00   0.00  -0.03
     2   8    -0.02   0.11  -0.03    -0.03   0.04   0.05    -0.02   0.00   0.06
     3   1    -0.17   0.92  -0.26    -0.08   0.10   0.04    -0.07   0.04   0.05
     4   1     0.01  -0.02   0.03     0.02   0.08   0.12    -0.00  -0.02   0.07
     5   8     0.02   0.00   0.02     0.01  -0.03  -0.07    -0.02  -0.05   0.20
     6   1     0.03   0.00   0.04    -0.00  -0.01  -0.08     0.23  -0.23   0.47
     7   1    -0.00   0.00   0.03     0.03  -0.04  -0.08    -0.36   0.07   0.40
     8   8    -0.00  -0.04   0.01     0.06   0.14   0.18    -0.02  -0.04   0.06
     9   1     0.01  -0.04   0.02     0.02   0.07   0.11    -0.01  -0.03   0.06
    10   1    -0.01  -0.06  -0.05     0.11   0.17   0.39    -0.02  -0.04   0.01
    11   8    -0.01  -0.01  -0.05     0.01  -0.01   0.09     0.00   0.05   0.08
    12   1    -0.04  -0.04  -0.07     0.07   0.11   0.17     0.12   0.24   0.21
    13   1     0.02   0.01  -0.08    -0.04  -0.10   0.19    -0.10  -0.12   0.25
    14   8     0.01  -0.02  -0.00    -0.05  -0.12  -0.15     0.00  -0.00   0.08
    15   1    -0.02  -0.04   0.00    -0.36  -0.07  -0.35     0.03  -0.00   0.09
    16   1     0.03  -0.02  -0.03     0.17  -0.37  -0.32    -0.02   0.02   0.09
    17   8     0.00  -0.02   0.00     0.02  -0.03  -0.04     0.04   0.01  -0.17
    18   1     0.01  -0.01   0.01     0.01  -0.03  -0.05     0.03   0.01  -0.14
    19   1    -0.00  -0.02  -0.00     0.02  -0.03  -0.03     0.03   0.02  -0.16
                      7                      8                      9
                      A                      A                      A
 Frequencies --    -27.2368                36.4759                47.7168
 Red. masses --      4.6436                 5.6275                 5.1751
 Frc consts  --      0.0020                 0.0044                 0.0069
 IR Inten    --     13.8931                 3.4767                 1.3971
  Atom  AN      X      Y      Z        X      Y      Z        X      Y      Z
     1  80    -0.01  -0.04   0.01     0.01  -0.03  -0.04    -0.01   0.01  -0.01
     2   8    -0.03  -0.02   0.09     0.02   0.04  -0.16     0.03  -0.07  -0.06
     3   1    -0.10   0.13   0.05     0.07  -0.05  -0.14     0.02   0.05  -0.10
     4   1    -0.02  -0.04   0.10     0.05   0.19  -0.12     0.13  -0.16   0.03
     5   8     0.16   0.17  -0.08     0.08   0.09   0.16    -0.23  -0.13   0.00
     6   1     0.16   0.24  -0.09     0.06   0.13   0.13    -0.25  -0.20  -0.01
     7   1     0.20   0.19  -0.09     0.14   0.13   0.15    -0.25  -0.18  -0.01
     8   8    -0.07   0.00   0.03     0.14   0.25   0.02     0.18  -0.07   0.12
     9   1     0.04   0.08  -0.02     0.04   0.18   0.06     0.23  -0.06   0.09
    10   1    -0.17   0.02  -0.04     0.23   0.27   0.23     0.14  -0.04   0.23
    11   8    -0.17   0.08   0.07    -0.22  -0.00   0.04    -0.16   0.07   0.00
    12   1    -0.10   0.27   0.18    -0.33  -0.08  -0.03    -0.23   0.02  -0.05
    13   1    -0.28  -0.04   0.22    -0.19   0.11  -0.06    -0.14   0.14  -0.06
    14   8     0.17   0.22  -0.10    -0.09   0.04   0.17     0.31   0.02  -0.04
    15   1     0.22   0.27  -0.11    -0.13  -0.03   0.21     0.27   0.06  -0.10
    16   1     0.15   0.30  -0.11    -0.08  -0.01   0.18     0.35   0.03  -0.10
    17   8     0.01   0.01  -0.11    -0.05  -0.04   0.16    -0.05   0.06   0.08
    18   1     0.06   0.05  -0.10    -0.01  -0.00   0.17    -0.07   0.04   0.06
    19   1    -0.05   0.02  -0.11    -0.08  -0.03   0.17    -0.06   0.06   0.08
                     10                     11                     12
                      A                      A                      A
 Frequencies --     52.1389               100.5336               126.3373
 Red. masses --      5.6180                 5.5540                 5.4468
 Frc consts  --      0.0090                 0.0331                 0.0512
 IR Inten    --      8.6578                 6.9502                18.9635
  Atom  AN      X      Y      Z        X      Y      Z        X      Y      Z
     1  80    -0.05  -0.01  -0.03     0.02  -0.06   0.01     0.04  -0.01  -0.06
     2   8    -0.02  -0.06  -0.07     0.02  -0.02  -0.05    -0.04   0.02   0.22
     3   1    -0.03   0.03  -0.10    -0.02   0.38  -0.17    -0.20   0.02   0.23
     4   1     0.06  -0.11   0.01     0.00   0.07  -0.07    -0.14  -0.02   0.30
     5   8     0.09   0.22   0.10    -0.24   0.08  -0.08    -0.09   0.03   0.06
     6   1     0.05   0.31   0.05    -0.23   0.01  -0.07    -0.25   0.11  -0.11
     7   1     0.19   0.25   0.07    -0.28   0.01  -0.08     0.11  -0.05  -0.07
     8   8     0.11  -0.04   0.10     0.01   0.11  -0.06    -0.22  -0.08   0.15
     9   1     0.12  -0.04   0.09    -0.02   0.10  -0.04    -0.15  -0.01   0.10
    10   1     0.09  -0.01   0.21     0.02   0.12  -0.01    -0.28  -0.09  -0.01
    11   8     0.33  -0.08   0.06     0.15   0.22   0.03     0.01   0.01   0.05
    12   1     0.38  -0.16   0.04     0.26   0.29   0.11    -0.12  -0.22  -0.10
    13   1     0.40  -0.12   0.04     0.12   0.10   0.13     0.13   0.19  -0.15
    14   8     0.17  -0.00   0.03    -0.10   0.04   0.03    -0.05   0.05  -0.01
    15   1     0.14   0.01   0.00    -0.10  -0.01   0.07    -0.05   0.11  -0.06
    16   1     0.19   0.01  -0.01    -0.10   0.02   0.05    -0.02   0.07  -0.04
    17   8    -0.10   0.03   0.08    -0.05   0.25  -0.04    -0.07   0.05   0.26
    18   1    -0.07   0.06   0.12    -0.05   0.28  -0.03    -0.06   0.06   0.27
    19   1    -0.03   0.02   0.08    -0.08   0.26  -0.08    -0.05   0.05   0.28
                     13                     14                     15
                      A                      A                      A
 Frequencies --    221.3021               270.1790               276.0789
 Red. masses --      3.5025                 2.9788                 1.2882
 Frc consts  --      0.1011                 0.1281                 0.0579
 IR Inten    --     75.5306                68.6495                 8.6344
  Atom  AN      X      Y      Z        X      Y      Z        X      Y      Z
     1  80     0.00  -0.02   0.01    -0.01  -0.01   0.00    -0.00   0.00  -0.00
     2   8    -0.08   0.37  -0.05     0.00  -0.01  -0.15     0.00   0.00  -0.05
     3   1     0.09  -0.80   0.28     0.12  -0.11  -0.13     0.04  -0.01  -0.05
     4   1     0.01   0.15  -0.00    -0.19  -0.10  -0.00    -0.06  -0.04  -0.00
     5   8    -0.03   0.03   0.01     0.15  -0.13  -0.01     0.03  -0.06   0.06
     6   1    -0.02   0.03   0.02     0.25  -0.23   0.10    -0.24   0.22  -0.23
     7   1    -0.04   0.04   0.02     0.02  -0.04   0.08     0.41  -0.27  -0.19
     8   8     0.01  -0.06   0.01    -0.10  -0.02   0.08    -0.03  -0.02   0.02
     9   1    -0.01  -0.06   0.06    -0.12   0.01   0.05    -0.04  -0.02   0.01
    10   1     0.09  -0.12  -0.18    -0.10   0.02   0.27    -0.02  -0.01   0.08
    11   8     0.01   0.03  -0.03     0.05   0.21   0.03     0.01   0.04  -0.05
    12   1     0.02   0.03  -0.02    -0.06  -0.19  -0.19     0.14   0.44   0.17
    13   1    -0.00   0.03  -0.02     0.20   0.52  -0.27    -0.13  -0.28   0.25
    14   8     0.07  -0.04  -0.01    -0.00   0.02  -0.01    -0.00  -0.00   0.01
    15   1     0.06   0.02  -0.06    -0.02   0.08  -0.07     0.02   0.00   0.02
    16   1     0.09  -0.05  -0.03     0.04   0.04  -0.07    -0.01   0.04   0.01
    17   8    -0.01   0.03  -0.01     0.05   0.00   0.03     0.01   0.01   0.02
    18   1    -0.00   0.04   0.00     0.06   0.05  -0.07    -0.03  -0.04   0.26
    19   1    -0.03   0.03  -0.03     0.04   0.04   0.23     0.05  -0.05  -0.21
                     16                     17                     18
                      A                      A                      A
 Frequencies --    296.8657               322.1694               366.2350
 Red. masses --      3.5154                 1.1360                 1.7900
 Frc consts  --      0.1825                 0.0695                 0.1415
 IR Inten    --     62.3615                74.4792                20.2097
  Atom  AN      X      Y      Z        X      Y      Z        X      Y      Z
     1  80    -0.03  -0.01  -0.01     0.00  -0.00  -0.00    -0.01  -0.00  -0.00
     2   8    -0.05   0.02   0.23    -0.01   0.03   0.03    -0.01   0.00   0.03
     3   1    -0.23   0.12   0.21    -0.02   0.03   0.02    -0.04   0.01   0.03
     4   1     0.28   0.16   0.00    -0.04  -0.06  -0.03     0.02   0.03   0.01
     5   8     0.09  -0.11   0.04    -0.01   0.00  -0.01     0.06  -0.03  -0.09
     6   1    -0.06   0.05  -0.13    -0.00  -0.00  -0.00     0.36  -0.35   0.23
     7   1     0.32  -0.22  -0.11    -0.02   0.00  -0.00    -0.33   0.23   0.19
     8   8     0.16   0.05  -0.13    -0.02   0.03  -0.01     0.01   0.01  -0.01
     9   1     0.17   0.00  -0.09    -0.13  -0.18  -0.28     0.01   0.01  -0.02
    10   1     0.17  -0.01  -0.38     0.15   0.09   0.52     0.01  -0.00  -0.05
    11   8     0.04   0.16   0.02     0.00  -0.01   0.01     0.01   0.02  -0.08
    12   1    -0.02  -0.03  -0.09    -0.00  -0.02   0.00     0.16   0.40   0.15
    13   1     0.12   0.32  -0.13     0.00   0.01   0.00    -0.08  -0.35   0.23
    14   8     0.02  -0.04   0.00     0.02  -0.06  -0.04     0.01  -0.01  -0.00
    15   1     0.05  -0.13   0.10     0.43  -0.21   0.29     0.02  -0.02   0.01
    16   1    -0.04  -0.06   0.09    -0.25   0.41   0.09    -0.00   0.00   0.01
    17   8     0.00  -0.01   0.03     0.00  -0.00  -0.00    -0.01   0.02   0.18
    18   1     0.00  -0.01   0.15     0.00  -0.00  -0.01    -0.00   0.07  -0.15
    19   1     0.03  -0.00   0.12    -0.00  -0.00   0.01    -0.04  -0.02  -0.12
                     19                     20                     21
                      A                      A                      A
 Frequencies --    412.4515               448.8028               481.7080
 Red. masses --      4.7438                 3.7260                 1.3828
 Frc consts  --      0.4755                 0.4422                 0.1890
 IR Inten    --    103.4758               339.1380                43.0717
  Atom  AN      X      Y      Z        X      Y      Z        X      Y      Z
     1  80    -0.00  -0.00  -0.00    -0.00   0.00  -0.00     0.00  -0.00  -0.00
     2   8    -0.01   0.02   0.00     0.03  -0.02   0.00    -0.03   0.03   0.05
     3   1    -0.02   0.04  -0.00     0.03   0.09  -0.03     0.00   0.02   0.05
     4   1     0.01   0.00   0.00    -0.17   0.17   0.09    -0.07  -0.30  -0.19
     5   8     0.16  -0.16  -0.00    -0.00   0.01   0.00    -0.00   0.00   0.00
     6   1     0.15  -0.17  -0.01    -0.02   0.01  -0.01    -0.00   0.00   0.00
     7   1     0.21  -0.19  -0.03     0.01  -0.01  -0.01    -0.00   0.00   0.00
     8   8     0.01  -0.00   0.00    -0.20   0.19  -0.06    -0.01  -0.03  -0.12
     9   1     0.01  -0.01  -0.00    -0.27   0.42  -0.12     0.03   0.07   0.06
    10   1     0.01  -0.00   0.00    -0.28   0.15  -0.38    -0.03   0.17   0.73
    11   8    -0.06  -0.21   0.05    -0.01  -0.01   0.00     0.00  -0.00  -0.01
    12   1    -0.11  -0.35  -0.03     0.01  -0.04  -0.00    -0.01   0.01  -0.01
    13   1    -0.03  -0.12  -0.03     0.01  -0.01  -0.01    -0.01   0.00  -0.01
    14   8    -0.00   0.01  -0.00     0.22  -0.21   0.10     0.02   0.02   0.06
    15   1    -0.00  -0.01   0.01     0.18  -0.08  -0.03    -0.26   0.16  -0.20
    16   1    -0.01   0.00   0.01     0.33  -0.28  -0.00     0.23  -0.29  -0.06
    17   8    -0.09   0.37  -0.05    -0.00   0.01  -0.01     0.00   0.00   0.01
    18   1    -0.13   0.46   0.06    -0.01   0.01   0.00     0.00   0.00   0.00
    19   1    -0.10   0.47  -0.04    -0.00   0.00  -0.00     0.00   0.00  -0.00
                     22                     23                     24
                      A                      A                      A
 Frequencies --    580.0459               583.4480               602.6722
 Red. masses --      1.0778                 1.1423                 2.0570
 Frc consts  --      0.2137                 0.2291                 0.4402
 IR Inten    --     92.8364               711.0108                84.3060
  Atom  AN      X      Y      Z        X      Y      Z        X      Y      Z
     1  80    -0.00   0.00  -0.00     0.00   0.00   0.00    -0.00  -0.00  -0.00
     2   8     0.01  -0.02   0.01     0.00   0.01  -0.01    -0.13  -0.03  -0.02
     3   1     0.01   0.05  -0.00     0.00  -0.04   0.01    -0.10  -0.03  -0.03
     4   1    -0.09   0.34  -0.12     0.05  -0.19   0.07    -0.01   0.04  -0.05
     5   8     0.01   0.02   0.01     0.02   0.05   0.01     0.01   0.09   0.02
     6   1    -0.05  -0.17  -0.05    -0.10  -0.35  -0.09    -0.17  -0.49  -0.13
     7   1    -0.05  -0.18  -0.04    -0.10  -0.37  -0.08    -0.18  -0.50  -0.11
     8   8    -0.01   0.00  -0.02     0.01  -0.00   0.01     0.00   0.01  -0.00
     9   1    -0.25  -0.20   0.18     0.14   0.11  -0.10    -0.00  -0.02   0.02
    10   1     0.48  -0.16   0.02    -0.26   0.09   0.00     0.03  -0.01  -0.06
    11   8    -0.03   0.02  -0.00    -0.06   0.04  -0.00     0.04  -0.05   0.01
    12   1     0.20  -0.15   0.01     0.37  -0.28   0.02    -0.30   0.18  -0.02
    13   1     0.20  -0.17   0.00     0.37  -0.32   0.01    -0.29   0.22  -0.00
    14   8    -0.00  -0.02   0.03    -0.00   0.01  -0.02     0.01  -0.01   0.00
    15   1     0.03   0.32  -0.23    -0.02  -0.17   0.12     0.01  -0.01   0.00
    16   1     0.11   0.23  -0.21    -0.06  -0.12   0.11     0.00   0.00   0.00
    17   8    -0.01  -0.01  -0.00    -0.01  -0.01  -0.01     0.18   0.04   0.04
    18   1     0.02   0.02   0.01     0.04   0.04   0.02     0.20   0.05   0.04
    19   1    -0.04   0.00   0.00    -0.08   0.01   0.01     0.17   0.04   0.00
                     25                     26                     27
                      A                      A                      A
 Frequencies --    640.1171               685.1007               696.0366
 Red. masses --      2.1818                 6.1773                 1.1974
 Frc consts  --      0.5267                 1.7083                 0.3418
 IR Inten    --    307.5509                26.3576               331.5858
  Atom  AN      X      Y      Z        X      Y      Z        X      Y      Z
     1  80    -0.01  -0.00  -0.00    -0.05  -0.01  -0.01     0.00   0.00   0.00
     2   8     0.21   0.05   0.04     0.35   0.09   0.07    -0.03   0.00  -0.00
     3   1     0.16   0.04   0.05     0.28   0.08   0.08    -0.03  -0.02   0.00
     4   1     0.01  -0.03   0.07     0.05  -0.10   0.15     0.09  -0.29   0.05
     5   8     0.04   0.05   0.01    -0.06   0.01   0.00     0.00  -0.00  -0.00
     6   1    -0.08  -0.49  -0.09    -0.02   0.33   0.03     0.00  -0.01  -0.00
     7   1    -0.16  -0.43  -0.07     0.07   0.24   0.02    -0.00  -0.00   0.00
     8   8    -0.01  -0.01   0.01     0.01  -0.02   0.01     0.05   0.01   0.00
     9   1    -0.01   0.02  -0.02     0.03   0.07  -0.05     0.18   0.10  -0.07
    10   1    -0.02   0.01   0.07    -0.11   0.04   0.07    -0.42   0.14  -0.09
    11   8     0.06  -0.02  -0.01    -0.05  -0.03   0.02     0.00   0.00   0.00
    12   1    -0.32   0.30  -0.02     0.16  -0.24   0.01    -0.01   0.01  -0.00
    13   1    -0.34   0.29   0.00     0.19  -0.19  -0.01    -0.01   0.01   0.00
    14   8    -0.01   0.01   0.00    -0.03  -0.00   0.01    -0.05  -0.07   0.04
    15   1    -0.01   0.03  -0.02     0.03   0.14  -0.08     0.19   0.43  -0.25
    16   1     0.00   0.01  -0.02     0.01   0.13  -0.10     0.07   0.50  -0.32
    17   8    -0.13  -0.04  -0.02     0.38   0.10   0.08    -0.02  -0.00  -0.00
    18   1    -0.07   0.04   0.01     0.28   0.01   0.01    -0.01  -0.00   0.00
    19   1    -0.06  -0.06   0.01     0.27   0.10  -0.03    -0.01  -0.00   0.00
                     28                     29                     30
                      A                      A                      A
 Frequencies --    988.6346              1155.1256              1206.8429
 Red. masses --      1.0906                 1.0515                 1.0547
 Frc consts  --      0.6280                 0.8266                 0.9050
 IR Inten    --     31.2519                98.8967               129.0431
  Atom  AN      X      Y      Z        X      Y      Z        X      Y      Z
     1  80    -0.00  -0.00  -0.00     0.00  -0.00   0.00    -0.00  -0.00  -0.00
     2   8    -0.04   0.01   0.05    -0.00   0.00   0.00    -0.05  -0.01  -0.00
     3   1     0.79   0.14  -0.05    -0.00   0.00  -0.00     0.57   0.07  -0.07
     4   1    -0.30  -0.10  -0.45    -0.01  -0.00  -0.01     0.35   0.10   0.61
     5   8    -0.00   0.00   0.00     0.01   0.01  -0.02    -0.00   0.00  -0.00
     6   1    -0.00  -0.00   0.00     0.05  -0.11   0.03     0.00  -0.00   0.00
     7   1     0.00   0.00  -0.00    -0.09   0.05   0.04    -0.00   0.00   0.00
     8   8     0.02   0.01   0.03     0.00  -0.00   0.00    -0.01  -0.01  -0.02
     9   1    -0.01   0.02   0.13    -0.00   0.00   0.01     0.02  -0.03  -0.33
    10   1    -0.09   0.00  -0.13    -0.00   0.00  -0.00     0.15  -0.03   0.08
    11   8     0.00  -0.00   0.00    -0.01   0.01   0.03    -0.00   0.00   0.00
    12   1    -0.00   0.00   0.00     0.01  -0.13  -0.03     0.00  -0.00   0.00
    13   1     0.00  -0.00   0.00     0.05   0.10  -0.07     0.00   0.00  -0.00
    14   8     0.00  -0.00  -0.01    -0.00  -0.00  -0.00    -0.01   0.01   0.02
    15   1     0.03  -0.06   0.05     0.00  -0.00   0.00    -0.04   0.08  -0.06
    16   1    -0.04   0.03   0.02    -0.00   0.00   0.00     0.06  -0.07  -0.03
    17   8    -0.00  -0.00   0.00    -0.02   0.03   0.01    -0.00  -0.00   0.00
    18   1     0.00   0.01   0.01    -0.35  -0.35   0.34     0.00   0.00   0.03
    19   1    -0.01   0.00   0.01     0.52  -0.22  -0.51     0.01  -0.00  -0.00
                     31                     32                     33
                      A                      A                      A
 Frequencies --   1288.4612              1333.3574              1471.3024
 Red. masses --      1.0412                 1.0600                 1.0762
 Frc consts  --      1.0184                 1.1103                 1.3726
 IR Inten    --     40.9514               273.5723              1034.0064
  Atom  AN      X      Y      Z        X      Y      Z        X      Y      Z
     1  80    -0.00   0.00   0.00    -0.00  -0.00   0.00    -0.00  -0.00  -0.00
     2   8     0.00  -0.00  -0.00     0.00   0.00  -0.00    -0.00  -0.00  -0.01
     3   1    -0.02  -0.00   0.00    -0.01  -0.00   0.00     0.12   0.01  -0.02
     4   1    -0.00  -0.00  -0.01    -0.00  -0.00  -0.01     0.14   0.32   0.19
     5   8    -0.01  -0.01  -0.03     0.00   0.00  -0.02     0.00  -0.00  -0.00
     6   1     0.09  -0.06   0.07     0.06  -0.08   0.05     0.00  -0.00   0.00
     7   1    -0.05   0.12   0.04    -0.07   0.09   0.04     0.00  -0.00   0.00
     8   8    -0.00   0.00   0.00     0.00  -0.00   0.00    -0.03   0.00  -0.04
     9   1     0.00  -0.00   0.01    -0.00   0.00   0.00     0.41  -0.10   0.70
    10   1    -0.00   0.00   0.00    -0.00   0.00   0.00    -0.18   0.13   0.16
    11   8     0.01  -0.00   0.01    -0.01  -0.00  -0.03    -0.00   0.00   0.00
    12   1    -0.03  -0.05  -0.02     0.04   0.14   0.05     0.00   0.00   0.00
    13   1    -0.01   0.05  -0.02     0.01  -0.13   0.06     0.00  -0.00   0.00
    14   8     0.00  -0.00  -0.00     0.00   0.00   0.00     0.02  -0.03  -0.02
    15   1     0.00  -0.00   0.00     0.00  -0.00   0.00    -0.03  -0.10   0.02
    16   1    -0.00   0.00   0.00    -0.00  -0.00   0.00    -0.16   0.18   0.10
    17   8     0.01  -0.03  -0.01    -0.00   0.01  -0.04    -0.00   0.00   0.00
    18   1     0.39   0.29   0.71    -0.09  -0.07   0.52     0.00  -0.01  -0.00
    19   1    -0.36  -0.01  -0.30     0.31   0.04   0.74     0.00   0.01   0.00
                     34                     35                     36
                      A                      A                      A
 Frequencies --   1565.9091              1708.9643              1735.9228
 Red. masses --      1.0770                 1.0791                 1.0940
 Frc consts  --      1.5559                 1.8569                 1.9423
[...]
 6,-0.02374102,0.00053818,0.00888282,-0.00046367,-0.00072915,-0.0421980
 3,0.05953309,0.00106680,0.00153296,0.00001182,-0.00439778,-0.00019110,
 -0.01471770,-0.00032721,-0.00024621,0.00198808,-0.03519797,0.00426183,
 0.09092541,0.00395626,0.00438225,-0.00110246,-0.00141761,-0.00113964,0
 .00036978,-0.00026067,0.00039292,0.00006791,0.00150527,-0.00022444,-0.
 00019327,0.51147113,0.00098820,-0.00134917,0.00149882,-0.00005744,0.00
 027568,-0.00035233,0.00020206,-0.00002937,0.00010900,0.00010751,-0.000
 06248,-0.00000700,-0.11991595,0.43372605,0.00379206,0.00458502,-0.0042
 3086,-0.00132144,-0.00128168,0.00085402,-0.00034534,0.00033998,-0.0000
 9268,0.00143112,-0.00026741,-0.00028636,-0.00472515,0.28335325,0.27064
 893,-0.00055376,0.00014957,-0.00008367,0.00024104,0.00006993,0.0000203
 9,-0.00002353,-0.00005826,-0.00003503,-0.00026047,0.00003869,0.0000292
 1,-0.40807198,0.18474008,0.08536775,0.40960713,0.00012706,0.00096342,-
 0.00020592,-0.00005377,-0.00023961,0.00010320,-0.00012247,0.00004959,-
 0.00003842,0.00002116,0.00002878,-0.00000672,0.13119264,-0.10454662,-0
 .05635831,-0.17518236,0.11681999,-0.00031503,0.00006216,0.00027893,0.0
 0004299,0.00002441,-0.00008747,0.00000482,-0.00001900,0.00006838,-0.00
 005311,0.00000344,0.00003497,0.05597836,-0.05412488,-0.05151339,-0.080
 65601,0.06722513,0.04868068,0.00029841,-0.00027044,-0.00080334,-0.0000
 1286,0.00002419,0.00011711,0.00001286,-0.00003658,-0.00001848,-0.00005
 456,-0.00003625,-0.00002614,-0.06522066,-0.06791096,-0.06433092,0.0020
 1116,0.04259469,0.03133974,0.06059165,-0.00025089,-0.00001035,-0.00025
 951,0.00016113,0.00005263,0.00005880,-0.00002010,-0.00002360,-0.000051
 35,-0.00019262,0.00005476,0.00001321,-0.02046959,-0.31232764,-0.225938
 96,-0.01150509,-0.01451405,-0.01671510,0.03224220,0.32449416,-0.000619
 60,-0.00031303,0.00051108,0.00027304,0.00015299,-0.00018485,0.00003426
 ,-0.00006686,0.00004967,-0.00025668,0.00004735,0.00007239,-0.02664700,
 -0.22251662,-0.18582804,-0.00777622,-0.01237895,-0.00131191,0.03599346
 ,0.24147670,0.18962688,0.00417334,0.00849353,-0.00096557,-0.04720621,0
 .00621616,0.00813103,-0.00748304,-0.00075704,0.00074297,-0.25961360,0.
 06969278,0.01304545,-0.00114901,-0.00008270,-0.00097557,0.00020578,-0.
 00001766,0.00001597,0.00009299,0.00015078,0.00015686,0.53860571,0.0011
 3194,-0.00277568,-0.00033721,0.00987717,0.00891744,-0.00112011,-0.0017
 7297,0.00035443,0.00020949,0.04092341,-0.04732517,-0.00243057,0.000042
 75,0.00008471,0.00012456,-0.00000770,-0.00004542,-0.00000531,0.0000651
 7,-0.00004898,-0.00002924,-0.00225307,0.12446819,0.00041870,-0.0002490
 9,-0.00044939,0.00419791,-0.00054709,0.00871357,0.00040047,0.00021238,
 -0.00038420,0.04362178,-0.01352427,-0.08822537,-0.00008929,-0.00002040
 ,0.00010108,0.00002834,0.00000271,-0.00004117,0.00007491,0.00002343,-0
 .00005610,-0.08562770,-0.06127432,0.63589664,-0.00274820,-0.00223638,0
 .00069707,0.00615430,0.00099954,-0.00037418,-0.00007109,-0.00004523,0.
 00001828,-0.01859258,-0.00658120,-0.01280667,0.00057783,0.00004889,0.0
 0037323,-0.00011446,0.00000751,0.00001589,-0.00009673,-0.00007805,-0.0
 0003925,-0.08830132,-0.00876513,-0.01660491,0.09230861,-0.00068585,-0.
 00017635,0.00000850,0.00288938,-0.00099730,-0.00102398,0.00101549,-0.0
 0000787,0.00022398,0.00109296,0.00506043,0.00893266,0.00015746,-0.0000
 3240,0.00010703,-0.00002705,0.00002793,-0.00000009,-0.00003877,0.00000
 222,-0.00001405,-0.02448848,-0.04772310,-0.02919633,0.00345159,0.07379
 266,-0.00196453,-0.00240251,0.00113732,0.01026841,-0.00033422,-0.00389
 006,0.00112942,-0.00042029,0.00059678,-0.01411040,0.00681612,0.0205417
 7,0.00051445,0.00005127,0.00026548,-0.00010574,0.00000404,0.00003624,-
 0.00010432,-0.00007411,-0.00000676,0.00018509,-0.00605856,-0.09231865,
 -0.00009938,-0.00183793,0.08965690,-0.00090417,-0.00038814,0.00030874,
 -0.00209324,0.00136581,-0.00245705,-0.00062497,0.00014019,0.00044166,-
 0.00126649,-0.01286948,0.04219935,0.00015734,0.00002295,0.00007647,-0.
 00003320,-0.00000303,0.00000743,-0.00003543,-0.00002884,-0.00000395,-0
 .10808827,-0.02610356,0.10187197,0.01928457,0.00781148,-0.01416682,0.0
 9993717,-0.00006306,0.00056614,0.00038971,0.00024721,-0.00120093,0.000
 37291,0.00075320,0.00007900,-0.00050371,0.00532725,0.00555393,-0.00898
 182,0.00002128,-0.00005033,-0.00003402,-0.00000244,0.00002977,0.000002
 29,-0.00004130,0.00002398,0.00001391,-0.03990620,-0.04498199,0.1207076
 2,0.00399992,0.00525309,-0.00866252,0.03243778,0.03571289,0.00039780,0
 .00067118,0.00032336,-0.00292839,-0.00067452,-0.00030282,0.00013418,0.
 00026476,0.00023425,0.00111531,0.00600015,-0.00361418,-0.00011752,0.00
 001211,-0.00020275,0.00001275,-0.00000810,0.00002787,-0.00002261,0.000
 00190,0.00005671,0.11563766,0.08630901,-0.42200544,0.01160045,0.010886
 89,-0.01674064,-0.12364868,-0.10161764,0.44180296,-0.00041429,0.001345
 28,-0.00175867,-0.00007735,-0.00019890,0.00031925,-0.00004472,0.000111
 92,-0.00005140,0.00021222,0.00007649,-0.00015138,0.00172300,0.00047450
 ,-0.00037492,0.00015220,-0.00034579,0.00099784,-0.00016819,-0.00010377
 ,0.00053324,-0.00017977,-0.00009323,0.00008843,0.00012495,0.00008924,-
 0.00001822,0.00003544,0.00001640,-0.00007063,0.21340461,0.00268264,0.0
 0110513,-0.00149843,-0.00075044,-0.00038354,0.00021874,-0.00001837,0.0
 0018024,-0.00007873,0.00083915,-0.00020021,-0.00011913,0.00102783,0.00
 049485,0.00065301,-0.00007363,-0.00023523,-0.00002509,0.00006429,-0.00
 028722,0.00019614,-0.00059435,0.00014831,-0.00002447,0.00026756,0.0000
 0737,0.00022345,0.00007453,-0.00004994,-0.00006333,-0.07580732,0.66567
 555,-0.00674701,-0.00471613,-0.00265011,0.00224614,0.00129765,0.000452
 41,0.00027011,-0.00045837,-0.00017701,-0.00196981,0.00039428,0.0001387
 9,-0.00267886,0.00041694,-0.00242745,0.00012702,-0.00042666,-0.0000117
 1,-0.00003148,0.00008258,0.00037348,0.00149972,-0.00013155,0.00027024,
 -0.00074964,-0.00016023,-0.00084839,-0.00017825,-0.00001529,0.00007405
 ,-0.22008624,0.04524294,0.33247662,0.00027221,0.00021340,0.00071220,0.
 00003767,0.00000412,-0.00019899,0.00000142,-0.00004702,0.00008411,-0.0
 0010632,-0.00000235,0.00007455,-0.00034602,-0.00009594,0.00026855,0.00
 001351,0.00009956,-0.00035188,0.00008500,-0.00000138,-0.00015571,0.000
 07219,0.00000423,-0.00006005,-0.00003580,-0.00001663,0.00004306,-0.000
 01517,0.00000617,0.00003762,-0.16658099,0.15409260,0.18004812,0.159927
 94,0.00009466,0.00078678,0.00065780,-0.00002763,-0.00015294,-0.0001483
 3,-0.00007439,0.00000716,0.00008630,-0.00006056,0.00003577,0.00002487,
 0.00019373,-0.00031171,0.00018048,0.00004208,0.00022439,0.00006504,-0.
 00000787,0.00009222,-0.00010085,0.00002943,-0.00005068,-0.00002317,-0.
 00000676,0.00002848,0.00002254,-0.00000520,0.00002640,0.00001391,0.111
 95943,-0.17694723,-0.11993143,-0.14357129,0.19969816,0.00079225,0.0001
 3907,-0.00035957,-0.00028085,-0.00013079,-0.00000333,0.00000826,0.0000
 5891,0.00003532,0.00026616,-0.00004122,-0.00000442,-0.00044548,-0.0000
 9402,0.00050237,-0.00012156,0.00011449,-0.00049485,0.00007503,-0.00000
 210,-0.00021711,-0.00021012,0.00000465,-0.00006086,0.00012010,0.000030
 08,0.00014724,0.00002486,0.00000644,-0.00000204,0.17489163,-0.16436649
 ,-0.22077502,-0.18100935,0.15640051,0.21550600,0.00085230,-0.00033570,
 0.00016210,-0.00023924,0.00001165,-0.00007110,0.00001837,0.00000667,0.
 00001664,0.00014303,-0.00010271,0.00003316,-0.00030757,-0.00027976,0.0
 0039816,-0.00000666,0.00020837,-0.00030092,0.00012328,0.00004481,-0.00
 025703,-0.00008364,0.00010013,-0.00005297,0.00001416,-0.00004706,0.000
 07409,0.00000256,-0.00002537,0.00001988,-0.03538524,-0.08097962,0.0352
 3996,0.00577905,0.03351804,0.00045964,0.02753942,-0.00047809,-0.000206
 36,0.00022835,0.00026956,0.00012309,-0.00005624,0.00001259,-0.00006034
 ,0.00002064,-0.00028978,0.00006639,0.00005315,-0.00007278,-0.00006440,
 -0.00033280,0.00002902,0.00000506,0.00016415,-0.00004631,0.00009375,0.
 00003430,0.00020682,-0.00005445,-0.00000526,-0.00009288,-0.00000239,-0
 .00006396,-0.00002798,0.00002221,0.00002695,-0.03598605,-0.46553966,0.
 06754120,-0.01100957,-0.02749775,0.01307151,0.04831297,0.49366775,0.00
 006397,0.00017655,0.00020845,-0.00013392,-0.00005287,-0.00004859,-0.00
 001002,0.00004086,0.00003601,0.00015245,-0.00001303,0.00000933,-0.0003
 2838,-0.00049124,0.00028005,-0.00006168,0.00024986,-0.00019388,-0.0000
 4150,0.00018341,-0.00034030,-0.00013733,-0.00002388,-0.00006264,0.0000
 9643,0.00002963,0.00012402,0.00001893,0.00001822,0.00000698,0.03068885
 ,0.10882732,-0.06305367,0.00193951,-0.03725671,0.00779539,-0.03382826,
 -0.08123905,0.05415969,0.00144964,0.00120755,-0.00012757,-0.00320063,-
 0.00023621,0.00018277,-0.00010658,0.00007230,0.00027122,0.00530567,-0.
 00164309,-0.00259359,-0.00030547,-0.00001616,-0.00024674,0.00005828,-0
 .00000446,0.00000747,0.00003923,0.00003818,0.00003803,-0.02817466,-0.0
 1275639,-0.04281688,-0.00895403,0.00628809,0.00725699,-0.00586073,-0.0
 0171525,-0.00130307,-0.00012838,-0.00016587,0.00030865,0.00006292,0.00
 002580,-0.00004258,0.00002001,0.00006345,-0.00002951,0.42444373,0.0003
 9189,-0.00008977,0.00000967,-0.00118389,0.00069031,0.00047996,-0.00050
 340,-0.00011459,-0.00020703,0.00158985,-0.00209948,-0.00248290,-0.0000
 9204,0.00003640,-0.00006518,0.00001452,-0.00002745,0.00000141,0.000026
 87,-0.00000964,0.00000979,-0.01389619,0.01208604,-0.01456421,0.0100694
 5,-0.04456752,0.01090573,-0.00220043,-0.00151651,-0.00152645,-0.000088
 63,0.00002790,0.00005642,0.00001959,-0.00003323,-0.00001144,0.00005686
 ,-0.00000872,-0.00001056,0.00707548,0.69556636,0.00113138,0.00131230,-
 0.00079061,-0.00524388,0.00011956,0.00199714,-0.00051731,0.00019795,-0
 .00039564,0.00984014,-0.00370282,-0.00775007,-0.00027225,-0.00003270,-
 0.00009702,0.00005758,-0.00000054,-0.00003638,0.00006648,0.00004128,-0
 .00001546,-0.04787975,-0.01312542,-0.03158097,0.02348009,0.01041900,-0
 .01107404,-0.00199518,-0.00101083,0.00182742,0.00006856,-0.00010244,0.
 00055617,-0.00006648,-0.00003047,-0.00010769,-0.00006585,0.00002059,-0
 .00009470,0.14520983,-0.09200592,0.13458386,-0.00031071,-0.00003360,-0
 .00014278,0.00008853,-0.00007910,0.00024586,0.00002388,0.00001480,-0.0
 0008202,0.00005145,0.00035213,-0.00029083,0.00007227,-0.00000788,0.000
 07849,-0.00001249,0.00000624,-0.00000961,-0.00000768,-0.00000292,-0.00
 001780,-0.00065246,-0.00196720,-0.00185455,-0.00147349,0.00990793,0.00
 266708,-0.00010981,-0.00024002,-0.00016246,0.00009448,0.00002513,0.000
 00372,-0.00004459,-0.00000716,-0.00000573,-0.00004329,-0.00001635,-0.0
 0000696,-0.22061051,0.21816420,-0.10466594,0.21044518,0.00008380,0.000
 33740,-0.00007258,-0.00050176,-0.00024165,0.00006374,0.00006921,0.0000
 6869,0.00004970,0.00076719,0.00029157,-0.00027494,-0.00001114,-0.00002
 937,-0.00000115,0.00000365,0.00001583,-0.00000402,-0.00000547,0.000016
 37,-0.00000364,-0.00473269,-0.00421549,-0.00465132,0.00432491,0.009346
 31,0.00447964,-0.00002333,0.00041468,0.00015577,0.00004432,-0.00005321
 ,0.00005769,-0.00000957,0.00002111,-0.00000638,-0.00004282,0.00001895,
 -0.00000439,0.16410911,-0.28409506,0.08772010,-0.19859833,0.30941260,-
 0.00014207,-0.00018038,0.00020027,0.00064601,0.00007577,-0.00027253,0.
 00001329,-0.00004977,0.00007181,-0.00140172,-0.00008506,0.00041374,0.0
 0003165,0.00001047,-0.00001932,-0.00000854,-0.00000333,0.00001507,-0.0
 0001591,-0.00000727,0.00001506,-0.00024724,-0.00320127,-0.00336293,-0.
 00584176,0.01230857,0.00225716,-0.00105429,0.00029973,-0.00043947,-0.0
 0005339,0.00001449,-0.00014053,0.00003580,0.00000766,0.00003256,0.0000
 3297,0.00000265,0.00003291,-0.08614187,0.09329810,-0.05994022,0.097047
 97,-0.10241615,0.05383401,-0.00021409,-0.00029313,-0.00004498,0.000115
 96,0.00041610,0.00029277,-0.00026773,-0.00008433,-0.00020827,0.0000585
 7,-0.00079819,-0.00043270,0.00005666,0.00001512,0.00005779,-0.00001271
 ,-0.00000786,-0.00000654,-0.00000225,-0.00001158,-0.00001236,-0.001540
 11,0.00138592,-0.00345986,0.00157608,-0.00742353,0.00800585,-0.0004648
 1,-0.00074991,-0.00061687,0.00003673,0.00005241,-0.00002962,-0.0000267
 7,-0.00002223,-0.00000002,-0.00000570,-0.00002076,-0.00000235,-0.16389
 504,-0.21945631,-0.01888906,0.01250667,0.03457665,-0.00295653,0.152059
 87,-0.00019140,0.00000471,0.00000575,0.00053211,-0.00021344,-0.0001292
 1,0.00014074,0.00007518,0.00004005,-0.00100551,0.00046171,0.00030073,0
 .00004847,-0.00002010,0.00003533,-0.00000742,0.00001539,-0.00000114,-0
 .00001334,0.00000541,-0.00000471,0.00405384,0.00065288,0.00314953,-0.0
 0609072,-0.00017054,-0.00348122,-0.00030321,0.00020106,-0.00017605,0.0
 0004279,-0.00000959,-0.00002713,-0.00001267,0.00001502,0.00000374,-0.0
 0002577,0.00000376,0.00000343,-0.16197733,-0.37577734,0.01062072,-0.02
 755400,-0.03124759,-0.00012677,0.19236432,0.40596141,-0.00007000,-0.00
 008938,0.00014674,0.00035157,0.00008920,-0.00025813,-0.00004588,-0.000
 04458,0.00016022,-0.00111607,-0.00020751,-0.00008248,0.00002086,0.0000
 0700,-0.00002218,-0.00000630,-0.00000129,0.00001391,-0.00001252,-0.000
 00518,0.00001354,-0.00326248,0.00106941,-0.00610423,0.00004461,-0.0107
 3179,0.00991325,-0.00152153,-0.00096840,-0.00112100,-0.00002606,-0.000
 00370,-0.00009323,0.00002440,0.00001485,0.00002398,0.00001305,0.000006
 08,0.00002156,-0.01999847,0.00610422,-0.02691325,0.00724181,0.01493015
 ,0.00723818,0.01832889,-0.01020182,0.01701394,-0.12690505,-0.08947106,
 0.00824754,0.00577695,-0.00327130,0.00114713,-0.00266565,0.00095174,0.
 00061254,0.00461499,-0.00071818,-0.00058970,-0.02933182,0.00118670,-0.
 03766861,0.00053035,-0.00259777,-0.00365223,-0.00518933,0.00388210,-0.
 00044134,-0.00336367,0.00029704,-0.00021812,0.00162185,0.00039958,0.00
 150228,0.00039956,-0.00004904,-0.00043041,0.00861356,-0.00409455,0.014
 00613,0.00023788,-0.00106250,-0.00112782,-0.00105473,0.00156665,0.0007
 3805,-0.00086352,-0.00021672,-0.00080530,0.00017596,-0.00006220,0.0001
 0352,0.00015048,0.00011663,0.00006426,0.37977171,-0.08059955,-0.086831
 05,0.01500667,-0.00206567,0.00606612,-0.00030079,0.00053768,0.00208868
 ,-0.00019903,0.00421902,-0.00112787,-0.00045441,-0.00018064,0.01195891
 ,0.00071748,-0.00047750,-0.00063815,-0.00094784,0.00244937,-0.00136723
 ,0.00205384,-0.00284355,0.00066451,-0.00010477,0.00107712,0.00017547,0
 .00118147,0.00020034,-0.00014263,-0.00032697,-0.00456099,0.00714515,0.
 01959783,0.00047370,-0.00341156,0.00307803,0.00011138,0.00051005,-0.00
 165508,-0.00054965,-0.00003805,-0.00063507,0.00004648,-0.00012623,0.00
 009262,0.00010316,0.00002661,0.00005026,0.10348180,0.14584446,0.011344
 98,0.01902924,-0.03695344,0.00167087,-0.00022957,0.00825238,0.00038419
 ,-0.00026141,0.00071882,-0.00105191,0.00030914,0.00043254,-0.03774697,
 0.00263476,-0.01933624,-0.00200565,-0.00232610,-0.00671448,-0.00234083
 ,0.00218778,-0.00058496,0.00087082,-0.00006599,0.00010925,-0.00049208,
 -0.00005309,-0.00062123,-0.00007677,-0.00007775,-0.00004262,0.01349897
 ,0.01726687,-0.04952578,-0.00113265,0.00589363,-0.00353590,0.00141951,
 -0.00324856,-0.00637970,0.00016269,-0.00000514,0.00044305,0.00004768,0
 .00006222,-0.00013089,-0.00000479,-0.00000494,-0.00008875,0.04999427,-
 0.09956710,0.44502260,-0.01517528,-0.00758825,-0.00068015,0.00406438,0
 .00194750,-0.00087401,0.00025559,-0.00087057,0.00010476,-0.00298539,0.
 00046177,0.00047168,-0.00637654,0.00077788,0.02040761,-0.00297640,0.00
 392978,-0.00141672,0.00768212,-0.00387415,-0.00028106,0.00220568,-0.00
 015753,0.00003397,-0.00100657,-0.00027247,-0.00085464,-0.00024805,-0.0
 0000002,0.00029032,-0.00393227,-0.00295890,0.00731622,0.00051387,-0.00
 034123,0.00100570,0.00040333,0.00006136,0.00080724,0.00057085,0.000159
 90,0.00042745,-0.00014443,0.00001947,-0.00003327,-0.00011050,-0.000085
 41,-0.00001623,-0.15416142,0.00106414,-0.08249298,0.15057017,-0.013816
 29,-0.00191210,-0.00789826,0.00014075,-0.00056838,0.00139167,-0.000393
 30,-0.00006272,0.00001383,0.00013983,-0.00009095,0.00003082,0.00704138
 ,-0.02712250,-0.00423765,0.00201663,0.00176329,0.00425984,-0.00902615,
 0.00321759,-0.00810641,-0.00010843,-0.00001811,-0.00003610,0.00004736,
 0.00003550,0.00004848,0.00001649,0.00002210,-0.00001362,-0.00082743,-0
 .00066236,0.00135988,-0.00009681,0.00013200,-0.00004983,0.00024322,0.0
 0012433,0.00073276,-0.00002248,-0.00002867,-0.00003247,0.00000790,0.00
 001244,0.00000559,-0.00000294,0.00001681,0.00000530,0.00570511,-0.0387
 3488,0.02541771,0.00160703,0.06082815,-0.00104764,-0.00599248,0.010187
 17,0.00278918,0.00300298,-0.00150328,0.00072298,-0.00055165,-0.0001072
 9,-0.00291824,0.00051790,0.00048576,0.01341963,-0.01065340,-0.01203581
 ,0.00557155,0.00385688,0.01093925,0.00034622,-0.00076972,-0.00202974,0
 .00206190,-0.00024182,-0.00004649,-0.00087521,-0.00022569,-0.00070788,
 -0.00020907,0.00006089,0.00032256,0.00082207,-0.00101510,0.00134945,0.
 00013235,0.00023157,-0.00085510,0.00013658,0.00049573,-0.00024001,0.00
 052419,0.00012781,0.00033433,-0.00013927,0.00002419,-0.00000916,-0.000
 11223,-0.00006900,0.00000280,-0.05881045,0.01706391,-0.12045475,0.0571
 2821,-0.01079124,0.12597187,-0.00734273,-0.00756839,0.01262428,0.00091
 273,0.00009196,-0.00105025,-0.00020044,-0.00032394,-0.00019041,-0.0005
 7049,0.00000077,0.00008705,-0.00673240,-0.00019708,-0.00226254,-0.0007
 5379,0.00014816,-0.00164846,-0.00014899,0.00001981,-0.00052088,0.00048
 006,0.00004900,0.00004786,-0.00026811,-0.00010336,-0.00022265,-0.00007
 229,-0.00001662,0.00005468,-0.01748598,0.00631690,-0.00859488,0.000152
 02,-0.00067634,0.00559989,0.00223055,-0.00248187,0.00007447,0.00014922
 ,0.00006900,0.00011950,-0.00004896,-0.00001098,-0.00001463,-0.00002129
 ,-0.00003213,-0.00001391,-0.07835808,-0.02248665,0.04795063,0.02085086
 ,0.00732812,-0.01954275,0.08722812,-0.01113912,-0.00734207,0.01005561,
 0.00100839,0.00104424,-0.00101626,0.00002380,-0.00027789,0.00004221,-0
 .00114712,0.00017417,0.00004453,-0.00239448,-0.00063052,-0.00157899,0.
 00023730,0.00030308,0.00003460,-0.00003333,0.00053562,-0.00045069,0.00
 083702,-0.00013744,0.00012513,-0.00039750,-0.00005199,-0.00039742,-0.0
 0011636,0.00003708,0.00006405,0.00385172,-0.03041631,-0.01018063,-0.00
 005013,0.00733762,-0.00820515,-0.00077529,-0.00120127,0.01048477,0.000
 20694,-0.00000098,0.00022718,-0.00001826,0.00005267,-0.00004566,-0.000
 04292,-0.00000133,-0.00002284,-0.01604403,-0.04206229,0.03303830,0.006
 11970,0.00304846,0.00492823,0.01987365,0.06958916,0.00998219,0.0041144
 7,0.00740062,-0.00541409,-0.00273406,-0.00076003,-0.00049090,0.0009152
 0,0.00023193,0.00405133,-0.00083974,-0.00037404,0.00394401,0.00019895,
 0.00344018,-0.00035418,0.00019803,0.00030993,-0.00026491,-0.00024581,-
 0.00014357,-0.00304170,0.00032813,-0.00039233,0.00143692,0.00029687,0.
 00153148,0.00036219,0.00000024,-0.00020519,0.00068208,-0.00534605,0.00
 401170,-0.00042518,-0.00610822,0.00237302,-0.00342958,0.00328057,0.007
 73908,-0.00066154,-0.00011428,-0.00094593,0.00004533,-0.00010864,0.000
 20428,0.00009087,0.00006269,0.00013512,0.02732827,0.04534894,-0.210609
 89,-0.00134410,-0.00210030,-0.01160369,-0.03249700,-0.03714698,0.19765
 733\\-0.00054998,-0.01004187,-0.00157008,0.00831855,0.00382550,-0.0005
 9117,0.00349890,0.01233112,-0.00044544,-0.00222604,-0.00970997,0.00317
 051,-0.00807748,-0.00676498,0.00514029,-0.00392334,0.01122355,0.001959
 49,0.00703435,-0.00538834,-0.00842273,0.00018615,0.02429473,0.00163648
 ,-0.00776466,-0.01026849,0.00218827,0.00337579,-0.00768179,-0.00748048
 ,-0.01136773,-0.00084690,-0.00023452,0.00042175,0.01021841,0.00497195,
 0.00732573,-0.01009440,-0.00150954,0.01334518,0.00084620,-0.01106401,-
 0.00273276,-0.00980780,0.00700325,-0.00349517,0.01097498,0.00408041,-0
 .01752390,0.00684666,0.00702072,0.00778592,-0.00440002,-0.00161538,0.0
 0636875,-0.00555659,-0.00423800\\\@


 Time has a wonderful way of weeding out the trivial.
                                -- Richard Ben Sapir
 Job cpu time:       0 days  0 hours 46 minutes 20.9 seconds.
 Elapsed time:       0 days  0 hours  1 minutes 40.2 seconds.
 File lengths (MBytes):  RWF=   2793 Int=      0 D2E=      0 Chk=      3 Scr=      1
 Normal termination of Gaussian 16 at Wed May 11 22:13:12 2022.
