 Entering Gaussian System, Link 0=g16
 Initial command:
 /cm/shared/apps/gaussian/intel/EM64T/SSE4_2-enabled/binary//g16/l1.exe "/scratch/florez/25750/Gau-12398.inp" -scrdir="/scratch/florez/25750/"
 Entering Link 1 = /cm/shared/apps/gaussian/intel/EM64T/SSE4_2-enabled/binary//g16/l1.exe PID=     12401.
  
 Copyright (c) 1988,1990,1992,1993,1995,1998,2003,2009,2016,
            Gaussian, Inc.  All Rights Reserved.
  
 This is part of the Gaussian(R) 16 program.  It is based on
 the Gaussian(R) 09 system (copyright 2009, Gaussian, Inc.),
 the Gaussian(R) 03 system (copyright 2003, Gaussian, Inc.),
 the Gaussian(R) 98 system (copyright 1998, Gaussian, Inc.),
 the Gaussian(R) 94 system (copyright 1995, Gaussian, Inc.),
 the Gaussian 92(TM) system (copyright 1992, Gaussian, Inc.),
 the Gaussian 90(TM) system (copyright 1990, Gaussian, Inc.),
 the Gaussian 88(TM) system (copyright 1988, Gaussian, Inc.),
 the Gaussian 86(TM) system (copyright 1986, Carnegie Mellon
 University), and the Gaussian 82(TM) system (copyright 1983,
 Carnegie Mellon University). Gaussian is a federally registered
 trademark of Gaussian, Inc.
  
 This software contains proprietary and confidential information,
 including trade secrets, belonging to Gaussian, Inc.
  
 This software is provided under written license and may be
 used, copied, transmitted, or stored only in accord with that
 written license.
  
 The following legend is applicable only to US Government
 contracts under FAR:
  
                    RESTRICTED RIGHTS LEGEND
  
 Use, reproduction and disclosure by the US Government is
 subject to restrictions as set forth in subparagraphs (a)
 and (c) of the Commercial Computer Software - Restricted
 Rights clause in FAR 52.227-19.
  
 Gaussian, Inc.
 340 Quinnipiac St., Bldg. 40, Wallingford CT 06492
  
  
 ---------------------------------------------------------------
 Warning -- This program may not be used in any manner that
 competes with the business of Gaussian, Inc. or will provide
 assistance to any competitor of Gaussian, Inc.  The licensee
 of this program is prohibited from giving any competitor of
 Gaussian, Inc. access to this program.  By using this program,
 the user acknowledges that Gaussian, Inc. is engaged in the
 business of creating and licensing software in the field of
 computational chemistry and represents and warrants to the
 licensee that it is not a competitor of Gaussian, Inc. and that
 it will not use this program in any manner prohibited above.
 ---------------------------------------------------------------
  

 Cite this work as:
 Gaussian 16, Revision A.03,
 M. J. Frisch, G. W. Trucks, H. B. Schlegel, G. E. Scuseria, 
 M. A. Robb, J. R. Cheeseman, G. Scalmani, V. Barone, 
 G. A. Petersson, H. Nakatsuji, X. Li, M. Caricato, A. V. Marenich, 
 J. Bloino, B. G. Janesko, R. Gomperts, B. Mennucci, H. P. Hratchian, 
 J. V. Ortiz, A. F. Izmaylov, J. L. Sonnenberg, D. Williams-Young, 
 F. Ding, F. Lipparini, F. Egidi, J. Goings, B. Peng, A. Petrone, 
 T. Henderson, D. Ranasinghe, V. G. Zakrzewski, J. Gao, N. Rega, 
 G. Zheng, W. Liang, M. Hada, M. Ehara, K. Toyota, R. Fukuda, 
 J. Hasegawa, M. Ishida, T. Nakajima, Y. Honda, O. Kitao, H. Nakai, 
 T. Vreven, K. Throssell, J. A. Montgomery, Jr., J. E. Peralta, 
 F. Ogliaro, M. J. Bearpark, J. J. Heyd, E. N. Brothers, K. N. Kudin, 
 V. N. Staroverov, T. A. Keith, R. Kobayashi, J. Normand, 
 K. Raghavachari, A. P. Rendell, J. C. Burant, S. S. Iyengar, 
 J. Tomasi, M. Cossi, J. M. Millam, M. Klene, C. Adamo, R. Cammi, 
 J. W. Ochterski, R. L. Martin, K. Morokuma, O. Farkas, 
 J. B. Foresman, and D. J. Fox, Gaussian, Inc., Wallingford CT, 2016.
 
 ******************************************
 Gaussian 16:  ES64L-G16RevA.03 25-Dec-2016
                11-May-2022 
 ******************************************
 %chk=w6s3.chk
 %nproc=28
 Will use up to   28 processors via shared memory.
 %mem=500gb
 ------------------------
 #p MP2(full) SDDAll freq
 ------------------------
 1/10=4,30=1,38=1/1,3;
 2/12=2,17=6,18=5,40=1/2;
 3/5=17,6=6,11=9,25=1,30=1,71=2,140=1/1,2,3;
 4//1;
 5/5=2,38=5,98=1/2;
 8/6=3,8=1,10=90,19=11/1;
 9/15=3,16=-3/6;
 11/6=1,8=1,15=11,17=11,24=-1,27=1,28=-2,29=300,32=6,42=3/1,2,10;
 10/6=2,21=1/2;
 8/6=4,8=1,10=90,19=11/11,4;
 10/5=1,20=4/2;
 11/12=2,14=11,16=1,28=-2,42=3/2,10,12;
 6/7=2,8=2,9=2,10=2/1;
 7/8=1,10=1,12=2,25=1,44=2/1,2,3,16;
 1/10=4,30=1/3;
 99//99;
 Leave Link    1 at Wed May 11 21:40:21 2022, MaxMem= 67108864000 cpu:               1.3 elap:               0.1
 (Enter /cm/shared/apps/gaussian/intel/EM64T/SSE4_2-enabled/binary//g16/l101.exe)
 ----------------------------------------------------------------------
 file 'w6s3.log' Now we use Def2-QZVPPD, but it was opt at: ---'ZORA-SR
 +SO PBE QZ4P'---
 ----------------------------------------------------------------------
 Symbolic Z-matrix:
 Charge =  2 Multiplicity = 1
 Hg(Fragment=1)       -0.73235  -0.44713  -0.04634 
 O(Fragment=2)         5.48954   1.56738  -0.45691 
 H(Fragment=2)         5.72381   2.41228  -0.03425 
 H(Fragment=2)         6.36443   0.99308  -0.70038 
 O(Fragment=2)         3.67463   0.31631   0.72898 
 H(Fragment=2)         3.77161   0.07426   1.66419 
 H(Fragment=2)         4.73036   1.0576    0.08039 
 O(Fragment=2)         7.45331   0.19779  -1.11182 
 H(Fragment=2)         8.25658   0.1178   -0.56942 
 H(Fragment=2)         7.74252   0.25644  -2.03878 
 O(Fragment=2)        -2.25533  -1.71868  -0.55012 
 H(Fragment=2)        -3.05853  -1.98234   0.1512 
 H(Fragment=2)        -2.60522  -1.59805  -1.45196 
 O(Fragment=2)        -3.96977  -2.35661   1.09007 
 H(Fragment=2)        -4.85743  -1.95538   1.08498 
 H(Fragment=2)        -4.09048  -3.31234   1.23722 
 O(Fragment=2)         0.83288   0.64047   0.42642 
 H(Fragment=2)         2.71508   0.45745   0.56362 
 H(Fragment=2)         0.51797   1.54522   0.61346 
 
 ITRead=  0  0  0  0  0  0  0  0  0  0  0  0  0  0  0  0  0  0  0
 MicOpt= -1 -1 -1 -1 -1 -1 -1 -1 -1 -1 -1 -1 -1 -1 -1 -1 -1 -1 -1
 NAtoms=     19 NQM=       19 NQMF=       0 NMMI=      0 NMMIF=      0
                NMic=       0 NMicF=      0.
                    Isotopes and Nuclear Properties:
 (Nuclear quadrupole moments (NQMom) in fm**2, nuclear magnetic moments (NMagM)
  in nuclear magnetons)

  Atom         1           2           3           4           5           6           7           8           9          10
 IAtWgt=         202          16           1           1          16           1           1          16           1           1
 AtmWgt= 201.9706000  15.9949146   1.0078250   1.0078250  15.9949146   1.0078250   1.0078250  15.9949146   1.0078250   1.0078250
 NucSpn=           0           0           1           1           0           1           1           0           1           1
 AtZEff=  -0.0000000  -0.0000000  -0.0000000  -0.0000000  -0.0000000  -0.0000000  -0.0000000  -0.0000000  -0.0000000  -0.0000000
 NQMom=    0.0000000   0.0000000   0.0000000   0.0000000   0.0000000   0.0000000   0.0000000   0.0000000   0.0000000   0.0000000
 NMagM=    0.0000000   0.0000000   2.7928460   2.7928460   0.0000000   2.7928460   2.7928460   0.0000000   2.7928460   2.7928460
 AtZNuc=  80.0000000   8.0000000   1.0000000   1.0000000   8.0000000   1.0000000   1.0000000   8.0000000   1.0000000   1.0000000

  Atom        11          12          13          14          15          16          17          18          19
 IAtWgt=          16           1           1          16           1           1          16           1           1
 AtmWgt=  15.9949146   1.0078250   1.0078250  15.9949146   1.0078250   1.0078250  15.9949146   1.0078250   1.0078250
 NucSpn=           0           1           1           0           1           1           0           1           1
 AtZEff=  -0.0000000  -0.0000000  -0.0000000  -0.0000000  -0.0000000  -0.0000000  -0.0000000  -0.0000000  -0.0000000
 NQMom=    0.0000000   0.0000000   0.0000000   0.0000000   0.0000000   0.0000000   0.0000000   0.0000000   0.0000000
 NMagM=    0.0000000   2.7928460   2.7928460   0.0000000   2.7928460   2.7928460   0.0000000   2.7928460   2.7928460
 AtZNuc=   8.0000000   1.0000000   1.0000000   8.0000000   1.0000000   1.0000000   8.0000000   1.0000000   1.0000000
 Leave Link  101 at Wed May 11 21:40:21 2022, MaxMem= 67108864000 cpu:               3.4 elap:               0.2
 (Enter /cm/shared/apps/gaussian/intel/EM64T/SSE4_2-enabled/binary//g16/l103.exe)

 GradGradGradGradGradGradGradGradGradGradGradGradGradGradGradGradGradGrad
 Berny optimization.
 Initialization pass.
 Trust Radius=3.00D-01 FncErr=1.00D-07 GrdErr=1.00D-07 EigMax=2.50D+02 EigMin=1.00D-04
 Number of steps in this run=      2 maximum allowed number of steps=      2.
 GradGradGradGradGradGradGradGradGradGradGradGradGradGradGradGradGradGrad

 Leave Link  103 at Wed May 11 21:40:21 2022, MaxMem= 67108864000 cpu:               0.5 elap:               0.0
 (Enter /cm/shared/apps/gaussian/intel/EM64T/SSE4_2-enabled/binary//g16/l202.exe)
                          Input orientation:                          
 ---------------------------------------------------------------------
 Center     Atomic      Atomic             Coordinates (Angstroms)
 Number     Number       Type             X           Y           Z
 ---------------------------------------------------------------------
      1         80           0       -0.732349   -0.447133   -0.046344
      2          8           0        5.489544    1.567383   -0.456912
      3          1           0        5.723806    2.412284   -0.034246
      4          1           0        6.364432    0.993084   -0.700379
      5          8           0        3.674633    0.316305    0.728981
      6          1           0        3.771612    0.074260    1.664191
      7          1           0        4.730363    1.057595    0.080387
      8          8           0        7.453309    0.197787   -1.111824
      9          1           0        8.256577    0.117802   -0.569418
     10          1           0        7.742521    0.256444   -2.038776
     11          8           0       -2.255329   -1.718677   -0.550120
     12          1           0       -3.058526   -1.982341    0.151201
     13          1           0       -2.605220   -1.598053   -1.451956
     14          8           0       -3.969773   -2.356605    1.090070
     15          1           0       -4.857427   -1.955384    1.084977
     16          1           0       -4.090482   -3.312339    1.237216
     17          8           0        0.832879    0.640473    0.426424
     18          1           0        2.715078    0.457449    0.563621
     19          1           0        0.517973    1.545217    0.613457
 ---------------------------------------------------------------------
                    Distance matrix (angstroms):
                    1          2          3          4          5
     1  Hg   0.000000
     2  O    6.552770   0.000000
     3  H    7.061044   0.973336   0.000000
     4  H    7.270921   1.074488   1.693595   0.000000
     5  O    4.539323   2.503086   3.028986   3.120275   0.000000
     6  H    4.845972   3.111235   3.487421   3.627416   0.970880
     7  H    5.667582   1.060627   1.683821   1.812164   1.443867
     8  O    8.279865   2.482151   3.009377   1.409765   4.204878
     9  H    9.021837   3.125766   3.459189   2.088895   4.766493
    10  H    8.734313   3.049059   3.569453   2.057444   4.920546
    11  O    2.046969   8.413676   8.999864   9.037505   6.398570
    12  H    2.794099   9.275766   9.822244   9.918189   7.138139
    13  H    2.609216   8.748446   9.352293   9.366617   6.917934
    14  O    3.926631  10.357100  10.861485  11.010083   8.106280
    15  H    4.535524  11.038438  11.501812  11.739296   8.836478
    16  H    4.597172  10.883871  11.432768  11.471537   8.586173
    17  O    1.963755   4.829490   5.222327   5.656156   2.876142
    18  H    3.615948   3.157705   3.637481   3.899024   0.983876
    19  H    2.442970   5.085538   5.317144   6.017649   3.389406
                    6          7          8          9         10
     6  H    0.000000
     7  H    2.096327   0.000000
     8  O    4.612636   3.094361   0.000000
     9  H    5.010570   3.706702   0.972544   0.000000
    10  H    5.432612   3.769057   0.972792   1.562846   0.000000
    11  O    6.666469   7.543548   9.911912  10.671138  10.299233
    12  H    7.291744   8.361400  10.809573  11.530891  11.245923
    13  H    7.291844   7.950555  10.223245  11.031848  10.528972
    14  O    8.134357   9.400457  11.910502  12.584126  12.401433
    15  H    8.883426  10.100147  12.689220  13.379545  13.168474
    16  H    8.571107   9.911704  12.292196  12.941393  12.786254
    17  O    3.238644   3.934986   6.811187   7.508407   7.346281
    18  H    1.573007   2.157560   5.032432   5.666335   5.664632
    19  H    3.722086   4.273894   7.272623   7.957556   7.803164
                   11         12         13         14         15
    11  O    0.000000
    12  H    1.098406   0.000000
    13  H    0.974824   1.709759   0.000000
    14  O    2.456928   1.360853   2.983170   0.000000
    15  H    3.082286   2.026995   3.411180   0.974132   0.000000
    16  H    3.016971   2.003311   3.518014   0.974500   1.566112
    17  O    4.007026   4.700844   4.512187   5.699857   6.289018
    18  H    5.539033   6.281494   6.049232   7.272089   7.964698
    19  H    4.438256   5.044670   4.888805   5.965839   6.432065
                   16         17         18         19
    16  H    0.000000
    17  O    6.365657   0.000000
    18  H    7.809013   1.896047   0.000000
    19  H    6.724789   0.976068   2.452141   0.000000
 Stoichiometry    H12HgO6(2+)
 Framework group  C1[X(H12HgO6)]
 Deg. of freedom    51
 Full point group                 C1      NOp   1
 Largest Abelian subgroup         C1      NOp   1
 Largest concise Abelian subgroup C1      NOp   1
                         Standard orientation:                         
 ---------------------------------------------------------------------
 Center     Atomic      Atomic             Coordinates (Angstroms)
 Number     Number       Type             X           Y           Z
 ---------------------------------------------------------------------
      1         80           0        1.119800   -0.111916   -0.183577
      2          8           0       -5.416174   -0.575078   -0.256450
      3          1           0       -5.811711   -1.457725   -0.147509
      4          1           0       -6.143991    0.202639   -0.115154
      5          8           0       -3.263474   -0.275133    0.985063
      6          1           0       -3.223114   -0.416654    1.944725
      7          1           0       -4.515605   -0.478344    0.295408
      8          8           0       -7.039253    1.286366   -0.008021
      9          1           0       -7.752916    1.291354    0.652663
     10          1           0       -7.408358    1.661781   -0.826037
     11          8           0        2.857877    0.941979   -0.425395
     12          1           0        3.755124    0.743911    0.176446
     13          1           0        3.094062    1.131014   -1.352091
     14          8           0        4.802774    0.528815    1.017922
     15          1           0        5.564397    0.003795    0.712606
     16          1           0        5.161406    1.302710    1.489218
     17          8           0       -0.617406   -0.980604    0.105960
     18          1           0       -2.382749   -0.516270    0.618749
     19          1           0       -0.515300   -1.925726   -0.115460
 ---------------------------------------------------------------------
 Rotational constants (GHZ):           3.6972167           0.1992720           0.1968301
 Leave Link  202 at Wed May 11 21:40:22 2022, MaxMem= 67108864000 cpu:               2.2 elap:               0.1
 (Enter /cm/shared/apps/gaussian/intel/EM64T/SSE4_2-enabled/binary//g16/l301.exe)
 Standard basis: SDDAll (6D, 10F)
 Ernie: Thresh=  0.10000D-02 Tol=  0.10000D-05 Strict=F.
 There are   129 symmetry adapted cartesian basis functions of A   symmetry.
 There are   129 symmetry adapted basis functions of A   symmetry.
   129 basis functions,   227 primitive gaussians,   129 cartesian basis functions
    33 alpha electrons       33 beta electrons
       nuclear repulsion energy       289.4942534772 Hartrees.
 IExCor=    0 DFT=F Ex=HF Corr=None ExCW=0 ScaHFX=  1.000000
 ScaDFX=  1.000000  1.000000  1.000000  1.000000 ScalE2=  1.000000  1.000000
 IRadAn=      5 IRanWt=     -1 IRanGd=            0 ICorTp=0 IEmpDi=  4
 NAtoms=   19 NActive=   19 NUniq=   19 SFac= 1.00D+00 NAtFMM=   60 NAOKFM=F Big=F
 Integral buffers will be    131072 words long.
 Raffenetti 1 integral format.
 Two-electron integral symmetry is turned on.
 Leave Link  301 at Wed May 11 21:40:22 2022, MaxMem= 67108864000 cpu:               1.6 elap:               0.1
 (Enter /cm/shared/apps/gaussian/intel/EM64T/SSE4_2-enabled/binary//g16/l302.exe)
 NPDir=0 NMtPBC=     1 NCelOv=     1 NCel=       1 NClECP=     1 NCelD=      1
         NCelK=      1 NCelE2=     1 NClLst=     1 CellRange=     0.0.
 One-electron integrals computed using PRISM.
 One-electron integral symmetry used in STVInt
   1 Symmetry operations used in ECPInt.
 ECPInt:  NShTT=    2346 NPrTT=    7709 LenC2=    2072 LenP2D=    5120.
 LDataN:  DoStor=T MaxTD1= 7 Len=  274
 NBasis=   129 RedAO= T EigKep=  3.87D-04  NBF=   129
 NBsUse=   129 1.00D-06 EigRej= -1.00D+00 NBFU=   129
 Leave Link  302 at Wed May 11 21:40:22 2022, MaxMem= 67108864000 cpu:               7.0 elap:               0.3
 (Enter /cm/shared/apps/gaussian/intel/EM64T/SSE4_2-enabled/binary//g16/l303.exe)
 DipDrv:  MaxL=1.
 Leave Link  303 at Wed May 11 21:40:22 2022, MaxMem= 67108864000 cpu:               0.9 elap:               0.1
 (Enter /cm/shared/apps/gaussian/intel/EM64T/SSE4_2-enabled/binary//g16/l401.exe)
 ExpMin= 2.00D-02 ExpMax= 4.71D+01 ExpMxC= 4.71D+01 IAcc=3 IRadAn=         5 AccDes= 0.00D+00
 Harris functional with IExCor=  205 and IRadAn=       5 diagonalized for initial guess.
 HarFok:  IExCor=  205 AccDes= 0.00D+00 IRadAn=         5 IDoV= 1 UseB2=F ITyADJ=14
 ICtDFT=  3500011 ScaDFX=  1.000000  1.000000  1.000000  1.000000
 Defaulting to unpruned grid for atomic number  80.
 FoFCou: FMM=F IPFlag=           0 FMFlag=      100000 FMFlg1=           0
         NFxFlg=           0 DoJE=T BraDBF=F KetDBF=T FulRan=T
         wScrn=  0.000000 ICntrl=       500 IOpCl=  0 I1Cent=   200000004 NGrid=           0
         NMat0=    1 NMatS0=      1 NMatT0=    0 NMatD0=    1 NMtDS0=    0 NMtDT0=    0
 Petite list used in FoFCou.
 Harris En= -257.160788631897    
 JPrj=0 DoOrth=F DoCkMO=F.
 Leave Link  401 at Wed May 11 21:40:22 2022, MaxMem= 67108864000 cpu:               8.3 elap:               0.3
 (Enter /cm/shared/apps/gaussian/intel/EM64T/SSE4_2-enabled/binary//g16/l502.exe)
 Integral symmetry usage will be decided dynamically.
 Closed shell SCF:
 Using DIIS extrapolation, IDIIS=  1040.
 NGot= 67108864000 LenX= 67108825412 LenY= 67108808330
 Requested convergence on RMS density matrix=1.00D-08 within 128 cycles.
 Requested convergence on MAX density matrix=1.00D-06.
 Requested convergence on             energy=1.00D-06.
 No special actions if energy rises.
 Fock matrices will be formed incrementally for  20 cycles.

 Cycle   1  Pass 0  IDiag  1:
 FoFJK:  IHMeth= 1 ICntrl=       0 DoSepK=F KAlg= 0 I1Cent=           0 FoldK=F
 IRaf= 820000000 NMat=       1 IRICut=       1 DoRegI=T DoRafI=F ISym2E= 0 IDoP0=0 IntGTp=1.
 FoFCou: FMM=F IPFlag=           0 FMFlag=      100000 FMFlg1=           0
         NFxFlg=           0 DoJE=F BraDBF=F KetDBF=F FulRan=T
         wScrn=  0.000000 ICntrl=         0 IOpCl=  0 I1Cent=           0 NGrid=           0
         NMat0=    1 NMatS0=      1 NMatT0=    0 NMatD0=    1 NMtDS0=    0 NMtDT0=    0
 Symmetry not used in FoFCou.
 E= -252.935003832272    
 DIIS: error= 4.51D-02 at cycle   1 NSaved=   1.
 NSaved= 1 IEnMin= 1 EnMin= -252.935003832272     IErMin= 1 ErrMin= 4.51D-02
 ErrMax= 4.51D-02  0.00D+00 EMaxC= 1.00D-01 BMatC= 6.33D-01 BMatP= 6.33D-01
 IDIUse=3 WtCom= 5.49D-01 WtEn= 4.51D-01
 Coeff-Com:  0.100D+01
 Coeff-En:   0.100D+01
 Coeff:      0.100D+01
 Gap=     0.684 Goal=   None    Shift=    0.000
 GapD=    0.684 DampG=2.000 DampE=0.250 DampFc=0.5000 IDamp=-1.
 Damping current iteration by 5.00D-01
 RMSDP=8.04D-03 MaxDP=2.29D-01              OVMax= 2.39D-01

 Cycle   2  Pass 0  IDiag  1:
 RMSU=  3.98D-03    CP:  1.02D+00
 E= -253.204611523875     Delta-E=       -0.269607691603 Rises=F Damp=T
 DIIS: error= 1.24D-02 at cycle   2 NSaved=   2.
 NSaved= 2 IEnMin= 2 EnMin= -253.204611523875     IErMin= 2 ErrMin= 1.24D-02
 ErrMax= 1.24D-02  0.00D+00 EMaxC= 1.00D-01 BMatC= 3.76D-02 BMatP= 6.33D-01
 IDIUse=3 WtCom= 8.76D-01 WtEn= 1.24D-01
 Coeff-Com: -0.217D+00 0.122D+01
 Coeff-En:   0.000D+00 0.100D+01
 Coeff:     -0.190D+00 0.119D+01
 Gap=     0.532 Goal=   None    Shift=    0.000
 RMSDP=2.37D-03 MaxDP=6.29D-02 DE=-2.70D-01 OVMax= 8.97D-02

 Cycle   3  Pass 0  IDiag  1:
 RMSU=  2.16D-03    CP:  1.01D+00  1.24D+00
 E= -253.434475262243     Delta-E=       -0.229863738368 Rises=F Damp=F
 DIIS: error= 3.66D-03 at cycle   3 NSaved=   3.
 NSaved= 3 IEnMin= 3 EnMin= -253.434475262243     IErMin= 3 ErrMin= 3.66D-03
 ErrMax= 3.66D-03  0.00D+00 EMaxC= 1.00D-01 BMatC= 4.04D-03 BMatP= 3.76D-02
 IDIUse=3 WtCom= 9.63D-01 WtEn= 3.66D-02
 Coeff-Com:  0.962D-03 0.680D-01 0.931D+00
 Coeff-En:   0.000D+00 0.000D+00 0.100D+01
 Coeff:      0.927D-03 0.655D-01 0.934D+00
 Gap=     0.550 Goal=   None    Shift=    0.000
 RMSDP=8.22D-04 MaxDP=2.89D-02 DE=-2.30D-01 OVMax= 1.83D-02

 Cycle   4  Pass 0  IDiag  1:
 RMSU=  5.45D-04    CP:  1.00D+00  1.18D+00  1.24D+00
 E= -253.438290159684     Delta-E=       -0.003814897441 Rises=F Damp=F
 DIIS: error= 2.01D-03 at cycle   4 NSaved=   4.
 NSaved= 4 IEnMin= 4 EnMin= -253.438290159684     IErMin= 4 ErrMin= 2.01D-03
 ErrMax= 2.01D-03  0.00D+00 EMaxC= 1.00D-01 BMatC= 7.43D-04 BMatP= 4.04D-03
 IDIUse=3 WtCom= 9.80D-01 WtEn= 2.01D-02
 Coeff-Com:  0.362D-01-0.162D+00 0.278D+00 0.848D+00
 Coeff-En:   0.000D+00 0.000D+00 0.000D+00 0.100D+01
 Coeff:      0.355D-01-0.159D+00 0.272D+00 0.851D+00
 Gap=     0.525 Goal=   None    Shift=    0.000
 RMSDP=4.23D-04 MaxDP=1.45D-02 DE=-3.81D-03 OVMax= 1.66D-02

 Cycle   5  Pass 0  IDiag  1:
 RMSU=  2.17D-04    CP:  1.00D+00  1.17D+00  1.40D+00  1.09D+00
 E= -253.439452295070     Delta-E=       -0.001162135386 Rises=F Damp=F
 DIIS: error= 6.51D-04 at cycle   5 NSaved=   5.
 NSaved= 5 IEnMin= 5 EnMin= -253.439452295070     IErMin= 5 ErrMin= 6.51D-04
 ErrMax= 6.51D-04  0.00D+00 EMaxC= 1.00D-01 BMatC= 4.57D-05 BMatP= 7.43D-04
 IDIUse=3 WtCom= 9.93D-01 WtEn= 6.51D-03
 Coeff-Com: -0.107D-01 0.367D-01-0.851D-01-0.107D+00 0.117D+01
 Coeff-En:   0.000D+00 0.000D+00 0.000D+00 0.000D+00 0.100D+01
 Coeff:     -0.106D-01 0.365D-01-0.845D-01-0.107D+00 0.117D+01
 Gap=     0.522 Goal=   None    Shift=    0.000
 RMSDP=1.53D-04 MaxDP=3.84D-03 DE=-1.16D-03 OVMax= 4.31D-03

 Cycle   6  Pass 0  IDiag  1:
 RMSU=  6.07D-05    CP:  9.99D-01  1.17D+00  1.45D+00  1.20D+00  1.38D+00
 E= -253.439594556967     Delta-E=       -0.000142261897 Rises=F Damp=F
 DIIS: error= 1.67D-04 at cycle   6 NSaved=   6.
 NSaved= 6 IEnMin= 6 EnMin= -253.439594556967     IErMin= 6 ErrMin= 1.67D-04
 ErrMax= 1.67D-04  0.00D+00 EMaxC= 1.00D-01 BMatC= 1.38D-05 BMatP= 4.57D-05
 IDIUse=3 WtCom= 9.98D-01 WtEn= 1.67D-03
 Coeff-Com: -0.877D-02 0.355D-01-0.909D-01-0.180D+00 0.361D+00 0.884D+00
 Coeff-En:   0.000D+00 0.000D+00 0.000D+00 0.000D+00 0.000D+00 0.100D+01
 Coeff:     -0.876D-02 0.355D-01-0.907D-01-0.180D+00 0.360D+00 0.884D+00
 Gap=     0.521 Goal=   None    Shift=    0.000
 RMSDP=8.56D-05 MaxDP=2.42D-03 DE=-1.42D-04 OVMax= 2.92D-03

 Cycle   7  Pass 0  IDiag  1:
 RMSU=  2.24D-05    CP:  9.99D-01  1.17D+00  1.47D+00  1.26D+00  1.57D+00
                    CP:  1.28D+00
 E= -253.439624076047     Delta-E=       -0.000029519080 Rises=F Damp=F
 DIIS: error= 5.08D-05 at cycle   7 NSaved=   7.
 NSaved= 7 IEnMin= 7 EnMin= -253.439624076047     IErMin= 7 ErrMin= 5.08D-05
 ErrMax= 5.08D-05  0.00D+00 EMaxC= 1.00D-01 BMatC= 7.74D-07 BMatP= 1.38D-05
 IDIUse=1 WtCom= 1.00D+00 WtEn= 0.00D+00
 Coeff-Com:  0.270D-02-0.782D-02 0.145D-01 0.382D-01-0.145D+00-0.162D+00
 Coeff-Com:  0.126D+01
 Coeff:      0.270D-02-0.782D-02 0.145D-01 0.382D-01-0.145D+00-0.162D+00
 Coeff:      0.126D+01
 Gap=     0.520 Goal=   None    Shift=    0.000
 RMSDP=2.40D-05 MaxDP=6.25D-04 DE=-2.95D-05 OVMax= 8.83D-04

 Cycle   8  Pass 0  IDiag  1:
 RMSU=  6.19D-06    CP:  9.99D-01  1.17D+00  1.48D+00  1.27D+00  1.62D+00
                    CP:  1.45D+00  1.31D+00
 E= -253.439626030156     Delta-E=       -0.000001954109 Rises=F Damp=F
 DIIS: error= 1.43D-05 at cycle   8 NSaved=   8.
 NSaved= 8 IEnMin= 8 EnMin= -253.439626030156     IErMin= 8 ErrMin= 1.43D-05
 ErrMax= 1.43D-05  0.00D+00 EMaxC= 1.00D-01 BMatC= 6.28D-08 BMatP= 7.74D-07
 IDIUse=1 WtCom= 1.00D+00 WtEn= 0.00D+00
 Coeff-Com:  0.684D-03-0.217D-02 0.620D-02 0.125D-01-0.428D-01-0.533D-01
 Coeff-Com:  0.250D+00 0.829D+00
 Coeff:      0.684D-03-0.217D-02 0.620D-02 0.125D-01-0.428D-01-0.533D-01
 Coeff:      0.250D+00 0.829D+00
 Gap=     0.520 Goal=   None    Shift=    0.000
 RMSDP=2.44D-06 MaxDP=5.43D-05 DE=-1.95D-06 OVMax= 1.06D-04

 Initial convergence to 1.0D-05 achieved.  Increase integral accuracy.
 Cycle   9  Pass 1  IDiag  1:
 E= -253.439626125702     Delta-E=       -0.000000095547 Rises=F Damp=F
 DIIS: error= 6.98D-06 at cycle   1 NSaved=   1.
 NSaved= 1 IEnMin= 1 EnMin= -253.439626125702     IErMin= 1 ErrMin= 6.98D-06
 ErrMax= 6.98D-06  0.00D+00 EMaxC= 1.00D-01 BMatC= 1.08D-08 BMatP= 1.08D-08
 IDIUse=1 WtCom= 1.00D+00 WtEn= 0.00D+00
 Coeff-Com:  0.100D+01
 Coeff:      0.100D+01
 Gap=     0.520 Goal=   None    Shift=    0.000
 RMSDP=2.44D-06 MaxDP=5.43D-05 DE=-9.55D-08 OVMax= 5.59D-05

 Cycle  10  Pass 1  IDiag  1:
 RMSU=  1.16D-06    CP:  1.00D+00
 E= -253.439626148575     Delta-E=       -0.000000022873 Rises=F Damp=F
 DIIS: error= 3.37D-06 at cycle   2 NSaved=   2.
 NSaved= 2 IEnMin= 2 EnMin= -253.439626148575     IErMin= 2 ErrMin= 3.37D-06
 ErrMax= 3.37D-06  0.00D+00 EMaxC= 1.00D-01 BMatC= 3.24D-09 BMatP= 1.08D-08
 IDIUse=1 WtCom= 1.00D+00 WtEn= 0.00D+00
 Coeff-Com:  0.183D+00 0.817D+00
 Coeff:      0.183D+00 0.817D+00
 Gap=     0.520 Goal=   None    Shift=    0.000
 RMSDP=5.41D-07 MaxDP=1.55D-05 DE=-2.29D-08 OVMax= 3.04D-05

 Cycle  11  Pass 1  IDiag  1:
 RMSU=  3.97D-07    CP:  1.00D+00  1.32D+00
 E= -253.439626154725     Delta-E=       -0.000000006150 Rises=F Damp=F
 DIIS: error= 2.35D-06 at cycle   3 NSaved=   3.
 NSaved= 3 IEnMin= 3 EnMin= -253.439626154725     IErMin= 3 ErrMin= 2.35D-06
 ErrMax= 2.35D-06  0.00D+00 EMaxC= 1.00D-01 BMatC= 9.47D-10 BMatP= 3.24D-09
 IDIUse=1 WtCom= 1.00D+00 WtEn= 0.00D+00
 Coeff-Com: -0.410D+00-0.905D-01 0.150D+01
 Coeff:     -0.410D+00-0.905D-01 0.150D+01
 Gap=     0.520 Goal=   None    Shift=    0.000
 RMSDP=7.36D-07 MaxDP=2.09D-05 DE=-6.15D-09 OVMax= 4.23D-05

 Cycle  12  Pass 1  IDiag  1:
 RMSU=  1.50D-07    CP:  1.00D+00  1.90D+00  1.61D+00
 E= -253.439626158167     Delta-E=       -0.000000003443 Rises=F Damp=F
 DIIS: error= 2.74D-07 at cycle   4 NSaved=   4.
 NSaved= 4 IEnMin= 4 EnMin= -253.439626158167     IErMin= 4 ErrMin= 2.74D-07
 ErrMax= 2.74D-07  0.00D+00 EMaxC= 1.00D-01 BMatC= 2.64D-11 BMatP= 9.47D-10
 IDIUse=1 WtCom= 1.00D+00 WtEn= 0.00D+00
 Coeff-Com: -0.816D-01-0.372D-01 0.287D+00 0.831D+00
 Coeff:     -0.816D-01-0.372D-01 0.287D+00 0.831D+00
 Gap=     0.520 Goal=   None    Shift=    0.000
 RMSDP=7.40D-08 MaxDP=2.40D-06 DE=-3.44D-09 OVMax= 4.60D-06

 Cycle  13  Pass 1  IDiag  1:
 RMSU=  3.91D-08    CP:  1.00D+00  1.93D+00  1.69D+00  1.26D+00
 E= -253.439626158225     Delta-E=       -0.000000000058 Rises=F Damp=F
 DIIS: error= 1.61D-07 at cycle   5 NSaved=   5.
 NSaved= 5 IEnMin= 5 EnMin= -253.439626158225     IErMin= 5 ErrMin= 1.61D-07
 ErrMax= 1.61D-07  0.00D+00 EMaxC= 1.00D-01 BMatC= 6.33D-12 BMatP= 2.64D-11
 IDIUse=1 WtCom= 1.00D+00 WtEn= 0.00D+00
 Coeff-Com:  0.109D+00 0.217D-01-0.404D+00 0.462D-01 0.123D+01
 Coeff:      0.109D+00 0.217D-01-0.404D+00 0.462D-01 0.123D+01
 Gap=     0.520 Goal=   None    Shift=    0.000
 RMSDP=6.08D-08 MaxDP=1.93D-06 DE=-5.79D-11 OVMax= 3.10D-06

 Cycle  14  Pass 1  IDiag  1:
 RMSU=  1.39D-08    CP:  1.00D+00  1.95D+00  1.74D+00  1.57D+00  1.34D+00
 E= -253.439626158238     Delta-E=       -0.000000000012 Rises=F Damp=F
 DIIS: error= 3.10D-08 at cycle   6 NSaved=   6.
 NSaved= 6 IEnMin= 6 EnMin= -253.439626158238     IErMin= 6 ErrMin= 3.10D-08
 ErrMax= 3.10D-08  0.00D+00 EMaxC= 1.00D-01 BMatC= 2.75D-13 BMatP= 6.33D-12
 IDIUse=1 WtCom= 1.00D+00 WtEn= 0.00D+00
 Coeff-Com:  0.229D-01 0.593D-02-0.842D-01-0.188D-01 0.217D+00 0.857D+00
 Coeff:      0.229D-01 0.593D-02-0.842D-01-0.188D-01 0.217D+00 0.857D+00
 Gap=     0.520 Goal=   None    Shift=    0.000
 RMSDP=7.64D-09 MaxDP=2.11D-07 DE=-1.24D-11 OVMax= 4.10D-07

 SCF Done:  E(RHF) =  -253.439626158     A.U. after   14 cycles
            NFock= 14  Conv=0.76D-08     -V/T= 2.9214
 KE= 1.319025304577D+02 PE=-1.125414065601D+03 EE= 4.505776555075D+02
 Leave Link  502 at Wed May 11 21:40:24 2022, MaxMem= 67108864000 cpu:              58.3 elap:               2.1
 (Enter /cm/shared/apps/gaussian/intel/EM64T/SSE4_2-enabled/binary//g16/l801.exe)
 Range of M.O.s used for correlation:     1   129
 NBasis=   129 NAE=    33 NBE=    33 NFC=     0 NFV=     0
 NROrb=    129 NOA=    33 NOB=    33 NVA=    96 NVB=    96

 **** Warning!!: The largest alpha MO coefficient is  0.28641062D+02

 Leave Link  801 at Wed May 11 21:40:25 2022, MaxMem= 67108864000 cpu:               0.8 elap:               0.0
 (Enter /cm/shared/apps/gaussian/intel/EM64T/SSE4_2-enabled/binary//g16/l906.exe)
 FulOut=F Deriv=T AODrv=T NAtomX=    19
   MMem=           0  MDisk=          33 MDiskD=          33
  W3Min=      549153 MinDsk=     1693460 NBas6D=         129
 NBas2D=        8499    NTT=        8385    LW2=     3308096
    MDV= 67108636173 MDiskM=     7225090 NBas2p=        7342
 Disk-based method using ON**2 memory for 33 occupieds at a time.
 Permanent disk used for amplitudes=    12443904 words.
 Estimated scratch disk usage=   119379758 words.
 IMap=   1   2   3   4   5   6   7   8   9  10  11  12  13  14  15  16  17  18  19  20
 IMap=  21  22  23  24  25  26  27  28  29  30  31  32  33
 Actual    scratch disk usage=   109222702 words.
 JobTyp=1 Pass  1:  I=   1 to  33 NPSUse= 28 ParTrn=T ParDer=T DoDerP=T.
 (rs|ai) integrals will be sorted in core.
 Spin components of T(2) and E(2):
     alpha-alpha T2 =       0.3673679529D-01 E2=     -0.1169938347D+00
     alpha-beta  T2 =       0.2154176691D+00 E2=     -0.6957745063D+00
     beta-beta   T2 =       0.3673679529D-01 E2=     -0.1169938347D+00
 The integrals were generated   1 times.
 ANorm=    0.1135293469D+01
 E2 =    -0.9297621756D+00 EUMP2 =    -0.25436938833381D+03
 Leave Link  906 at Wed May 11 21:40:39 2022, MaxMem= 67108864000 cpu:             394.5 elap:              14.1
 (Enter /cm/shared/apps/gaussian/intel/EM64T/SSE4_2-enabled/binary//g16/l1101.exe)
 Using compressed Sx but separate Hx and Fx, NAtomX=    19.
 Will process     20 centers per pass.
   1 Symmetry operations used in ECPInt.
 ECPInt:  NShTT=    2346 NPrTT=    7709 LenC2=    2072 LenP2D=    5120.
 LDataN:  DoStor=T MaxTD1= 8 Len=  415
 Leave Link 1101 at Wed May 11 21:40:39 2022, MaxMem= 67108864000 cpu:              11.4 elap:               0.4
 (Enter /cm/shared/apps/gaussian/intel/EM64T/SSE4_2-enabled/binary//g16/l1102.exe)
 Leave Link 1102 at Wed May 11 21:40:39 2022, MaxMem= 67108864000 cpu:               1.0 elap:               0.1
 (Enter /cm/shared/apps/gaussian/intel/EM64T/SSE4_2-enabled/binary//g16/l1110.exe)
 Forming Gx(P) for the SCF density, NAtomX=    19.
 Integral derivatives from FoFJK, PRISM(SPDF).
 Do as many integral derivatives as possible in FoFJK.
 G2DrvN: MDV=   67108862534.
 G2DrvN: will do    20 centers at a time, making    1 passes.
 Calling FoFCou, ICntrl=  3107 FMM=F I1Cent=   0 AccDes= 0.00D+00.
 FoFJK:  IHMeth= 1 ICntrl=    3107 DoSepK=F KAlg= 0 I1Cent=           0 FoldK=F
 IRaf=         0 NMat=       1 IRICut=       1 DoRegI=T DoRafI=F ISym2E= 0 IDoP0=0 IntGTp=1.
 FoFCou: FMM=F IPFlag=           0 FMFlag=      100000 FMFlg1=           0
         NFxFlg=           0 DoJE=F BraDBF=F KetDBF=F FulRan=T
         wScrn=  0.000000 ICntrl=      3107 IOpCl=  0 I1Cent=           0 NGrid=           0
         NMat0=    1 NMatS0=      1 NMatT0=    0 NMatD0=    1 NMtDS0=    0 NMtDT0=    0
 Symmetry not used in FoFCou.
 End of G2Drv F.D. properties file   721 does not exist.
 End of G2Drv F.D. properties file   722 does not exist.
 End of G2Drv F.D. properties file   788 does not exist.
 Leave Link 1110 at Wed May 11 21:40:40 2022, MaxMem= 67108864000 cpu:              11.5 elap:               0.4
 (Enter /cm/shared/apps/gaussian/intel/EM64T/SSE4_2-enabled/binary//g16/l1002.exe)
 Minotr:  Closed shell wavefunction.
          IDoAtm=1111111111111111111
          Direct CPHF calculation.
          Differentiating once with respect to electric field.
                with respect to dipole field.
          Differentiating once with respect to nuclear coordinates.
          Requested convergence is 1.0D-08 RMS, and 1.0D-07 maximum.
          Secondary convergence is 1.0D-12 RMS, and 1.0D-12 maximum.
          NewPWx=T KeepS1=T KeepF1=T KeepIn=T MapXYZ=F SortEE=F KeepMc=T.
 Keep R1 ints in memory in canonical form, NReq=41135337.
 FoFCou: FMM=F IPFlag=           0 FMFlag=           0 FMFlg1=           0
         NFxFlg=           0 DoJE=F BraDBF=F KetDBF=F FulRan=T
         wScrn=  0.000000 ICntrl=       600 IOpCl=  0 I1Cent=           0 NGrid=           0
         NMat0=    1 NMatS0=   8385 NMatT0=    0 NMatD0=    1 NMtDS0=    0 NMtDT0=    0
 Symmetry not used in FoFCou.
 Two-electron integral symmetry not used.
          MDV=   67108864000 using IRadAn=       1.
          Solving linear equations simultaneously, MaxMat=       0.
          There are    60 degrees of freedom in the 1st order CPHF.  IDoFFX=6 NUNeed=    60.
     57 vectors produced by pass  0 Test12= 5.28D-15 1.67D-09 XBig12= 1.41D+01 1.73D+00.
 AX will form    57 AO Fock derivatives at one time.
     57 vectors produced by pass  1 Test12= 5.28D-15 1.67D-09 XBig12= 4.47D-01 1.47D-01.
     57 vectors produced by pass  2 Test12= 5.28D-15 1.67D-09 XBig12= 1.34D-02 2.70D-02.
     57 vectors produced by pass  3 Test12= 5.28D-15 1.67D-09 XBig12= 1.49D-04 1.86D-03.
     57 vectors produced by pass  4 Test12= 5.28D-15 1.67D-09 XBig12= 1.11D-06 1.23D-04.
     57 vectors produced by pass  5 Test12= 5.28D-15 1.67D-09 XBig12= 6.82D-09 1.18D-05.
     30 vectors produced by pass  6 Test12= 5.28D-15 1.67D-09 XBig12= 3.94D-11 9.05D-07.
      3 vectors produced by pass  7 Test12= 5.28D-15 1.67D-09 XBig12= 1.87D-13 4.97D-08.
      1 vectors produced by pass  8 Test12= 5.28D-15 1.67D-09 XBig12= 9.07D-16 3.36D-09.
 InvSVY:  IOpt=1 It=  1 EMax= 4.44D-16
 Solved reduced A of dimension   376 with    60 vectors.
 FullF1:  Do perturbations      1 to      60.
 Saving first derivative matrices.
 End of Minotr F.D. properties file   721 does not exist.
 End of Minotr F.D. properties file   722 does not exist.
 End of Minotr F.D. properties file   788 does not exist.
 Leave Link 1002 at Wed May 11 21:40:41 2022, MaxMem= 67108864000 cpu:              48.2 elap:               1.8
 (Enter /cm/shared/apps/gaussian/intel/EM64T/SSE4_2-enabled/binary//g16/l811.exe)
 MDV= 67108864000.
 Form MO integral derivatives with frozen-active canonical formalism.
 MOERI=1 MOERIx=1 NAtoms=    19 NAtomX=    19.
 Discarding MO integrals.
 MO basis two electron integral derivatives will not be stored on disk.
 IAlg= 3 DoFC=T DoPWx=T Debug=F.
 Reordered first order wavefunction length =     20072448
 In DefCFB: NBatch=  1 ICI= 33 ICA= 96 LFMax= 96
            Large arrays: LIAPS=   210874752 LIARS=   111567456 words.
 In StABat: MaxSiz= 39 MinSiz= 13 NAtomB=  4
 DoIAMN: NPSUse= 28.
 Leave Link  811 at Wed May 11 21:41:21 2022, MaxMem= 67108864000 cpu:            1104.1 elap:              39.5
 (Enter /cm/shared/apps/gaussian/intel/EM64T/SSE4_2-enabled/binary//g16/l804.exe)
 Closed-shell transformation, MDV= 67108864000 ITran=4 ISComp=1.
 Semi-Direct transformation.
 ModeAB=           4 MOrb=            33 LenV=   67108328852
 LASXX=     28702344 LTotXX=    28702344 LenRXX=    58192761
 LTotAB=    29490417 MaxLAS=    30471606 LenRXY=           0
 NonZer=    86895105 LenScr=   131092480 LnRSAI=    30471606
 LnScr1=    46479360 LExtra=           0 Total=    266236207
 MaxDsk=          -1 SrtSym=           T ITran=            4
 DoSDTr:  NPSUse= 28
 JobTyp=0 Pass  1:  I=   1 to  33.
 (rs|ai) integrals will be sorted in core.
 Complete sort for first half transformation.
 First half transformation complete.
 Begin second half transformation for I=  10.
 Begin second half transformation for I=  20.
 Begin second half transformation for I=  30.
 Complete sort for second half transformation.
 Second half transformation complete.
 SymMOI:  orbitals are not symmetric.
 Spin components of T(2) and E(2):
     alpha-alpha T2 =       0.3673679529D-01 E2=     -0.1169938347D+00
     alpha-beta  T2 =       0.2154176691D+00 E2=     -0.6957745063D+00
     beta-beta   T2 =       0.3673679529D-01 E2=     -0.1169938347D+00
 ANorm=    0.1605547420D+01
 E2 =    -0.9297621756D+00 EUMP2 =    -0.25436938833381D+03
 Leave Link  804 at Wed May 11 21:41:26 2022, MaxMem= 67108864000 cpu:             141.4 elap:               5.1
 (Enter /cm/shared/apps/gaussian/intel/EM64T/SSE4_2-enabled/binary//g16/l1002.exe)
 Minotr:  Closed shell wavefunction.
          Computing MP2/KS-MP2 derivatives.
          Using Z-Vector for PSCF gradient.
          Skipping F1 and S1 gradient terms here.
          IDoAtm=1111111111111111111
          Using MO integrals in the linear equations.
          Forming densities via direct SCF.
          Differentiating once with respect to electric field.
                with respect to dipole field.
          Differentiating once with respect to nuclear coordinates.
          Requested convergence is 1.0D-10 RMS, and 1.0D-09 maximum.
          NewPWx=F KeepS1=T KeepF1=T KeepIn=T MapXYZ=F SortEE=F KeepMc=T.
          MDV=   67108864000 using IRadAn=       5.
          Solving linear equations separately, MaxMat=       0.
          There are     1 degrees of freedom in the 1st order CPHF.  IDoFFX=0 NUNeed=     1.
 FoFJK:  IHMeth= 1 ICntrl=       0 DoSepK=F KAlg= 0 I1Cent=           0 FoldK=F
 IRaf=         0 NMat=       1 IRICut=       1 DoRegI=T DoRafI=F ISym2E= 0 IDoP0=0 IntGTp=1.
 FoFCou: FMM=F IPFlag=           0 FMFlag=      100000 FMFlg1=           0
         NFxFlg=           0 DoJE=F BraDBF=F KetDBF=F FulRan=T
         wScrn=  0.000000 ICntrl=         0 IOpCl=  0 I1Cent=           0 NGrid=           0
         NMat0=    1 NMatS0=      1 NMatT0=    0 NMatD0=    1 NMtDS0=    0 NMtDT0=    0
 Symmetry not used in FoFCou.
 LinEq1:  Iter=  0 NonCon=     1 RMS=6.56D-03 Max=1.30D-01 NDo=     1
 LinEq1:  Iter=  1 NonCon=     1 RMS=1.45D-03 Max=9.86D-03 NDo=     1
 LinEq1:  Iter=  2 NonCon=     1 RMS=4.85D-04 Max=9.31D-03 NDo=     1
 LinEq1:  Iter=  3 NonCon=     1 RMS=2.02D-04 Max=2.86D-03 NDo=     1
 LinEq1:  Iter=  4 NonCon=     1 RMS=5.82D-05 Max=1.19D-03 NDo=     1
 LinEq1:  Iter=  5 NonCon=     1 RMS=1.65D-05 Max=2.64D-04 NDo=     1
 LinEq1:  Iter=  6 NonCon=     1 RMS=6.56D-06 Max=9.05D-05 NDo=     1
 LinEq1:  Iter=  7 NonCon=     1 RMS=1.48D-06 Max=2.34D-05 NDo=     1
 LinEq1:  Iter=  8 NonCon=     1 RMS=6.19D-07 Max=7.99D-06 NDo=     1
 LinEq1:  Iter=  9 NonCon=     1 RMS=1.52D-07 Max=1.33D-06 NDo=     1
 LinEq1:  Iter= 10 NonCon=     1 RMS=3.28D-08 Max=3.67D-07 NDo=     1
 LinEq1:  Iter= 11 NonCon=     1 RMS=1.37D-08 Max=1.58D-07 NDo=     1
 LinEq1:  Iter= 12 NonCon=     1 RMS=3.33D-09 Max=6.35D-08 NDo=     1
 LinEq1:  Iter= 13 NonCon=     1 RMS=8.02D-10 Max=1.38D-08 NDo=     1
 LinEq1:  Iter= 14 NonCon=     1 RMS=3.46D-10 Max=4.99D-09 NDo=     1
 LinEq1:  Iter= 15 NonCon=     1 RMS=8.84D-11 Max=1.58D-09 NDo=     1
 LinEq1:  Iter= 16 NonCon=     0 RMS=1.36D-11 Max=1.71D-10 NDo=     1
 Linear equations converged to 1.000D-10 1.000D-09 after    16 iterations.
 End of Minotr F.D. properties file   721 does not exist.
 End of Minotr F.D. properties file   722 does not exist.
 End of Minotr F.D. properties file   788 does not exist.
 Leave Link 1002 at Wed May 11 21:41:29 2022, MaxMem= 67108864000 cpu:              73.3 elap:               2.7
 (Enter /cm/shared/apps/gaussian/intel/EM64T/SSE4_2-enabled/binary//g16/l1102.exe)
 Use density number 2.
 Symmetrizing basis deriv contribution to polar:
 IMax=3 JMax=2 DiffMx= 0.00D+00
 Leave Link 1102 at Wed May 11 21:41:29 2022, MaxMem= 67108864000 cpu:               0.7 elap:               0.0
 (Enter /cm/shared/apps/gaussian/intel/EM64T/SSE4_2-enabled/binary//g16/l1110.exe)
 Forming Gx(P) for generalized density number  2 NAtomX=    19.
 Integral derivatives from FoFJK, PRISM(SPDF).
 Do as many integral derivatives as possible in FoFJK.
 G2DrvN: MDV=   67108862534.
 G2DrvN: will do    20 centers at a time, making    1 passes.
 Calling FoFCou, ICntrl=  3107 FMM=F I1Cent=   0 AccDes= 0.00D+00.
 FoFJK:  IHMeth= 1 ICntrl=    3107 DoSepK=F KAlg= 0 I1Cent=           0 FoldK=F
 IRaf=         0 NMat=       1 IRICut=       1 DoRegI=T DoRafI=F ISym2E= 0 IDoP0=0 IntGTp=1.
 FoFCou: FMM=F IPFlag=           0 FMFlag=      100000 FMFlg1=           0
         NFxFlg=           0 DoJE=F BraDBF=F KetDBF=F FulRan=T
         wScrn=  0.000000 ICntrl=      3107 IOpCl=  0 I1Cent=           0 NGrid=           0
         NMat0=    1 NMatS0=      1 NMatT0=    0 NMatD0=    1 NMtDS0=    0 NMtDT0=    0
 Symmetry not used in FoFCou.
 End of G2Drv F.D. properties file   721 does not exist.
 End of G2Drv F.D. properties file   722 does not exist.
 End of G2Drv F.D. properties file   788 does not exist.
 Leave Link 1110 at Wed May 11 21:41:29 2022, MaxMem= 67108864000 cpu:              11.3 elap:               0.4
 (Enter /cm/shared/apps/gaussian/intel/EM64T/SSE4_2-enabled/binary//g16/l1112.exe)
 MP22nd: MDV=   67108864000
 This link is doing NAtomX=    19 total of    60 degrees of freedom.
 Using ON3 I/O method in MakUI.
 Using Ix for Sx.
 Using OV2 memory method for fx*t*t/D, MaxI=    33 DoOO2=F NP=  28.
 R2 and R3 integrals will be kept in memory, NReq=    71415045.
 FoFCou: FMM=F IPFlag=           0 FMFlag=           0 FMFlg1=           0
         NFxFlg=           0 DoJE=F BraDBF=F KetDBF=F FulRan=T
         wScrn=  0.000000 ICntrl=       600 IOpCl=  0 I1Cent=           0 NGrid=           0
         NMat0=    1 NMatS0=      1 NMatT0=    0 NMatD0=    1 NMtDS0=    0 NMtDT0=    0
 Symmetry not used in FoFCou.
 DD1Dir will call FoFMem   1 times, MxPair=      1122
 NAB=   561 NAA=     0 NBB=     0.
 Symmetry is being used.
 FoFJK:  IHMeth= 1 ICntrl=       0 DoSepK=F KAlg= 0 I1Cent=           0 FoldK=F
 IRaf=         0 NMat=      60 IRICut=     150 DoRegI=T DoRafI=T ISym2E= 2 IDoP0=0 IntGTp=1.
 Discarding MO integrals.
 Leave Link 1112 at Wed May 11 21:42:00 2022, MaxMem= 67108864000 cpu:             857.3 elap:              30.8
 (Enter /cm/shared/apps/gaussian/intel/EM64T/SSE4_2-enabled/binary//g16/l601.exe)
 Copying SCF densities to generalized density rwf, IOpCl= 0 IROHF=0.

 **********************************************************************

            Population analysis using the SCF density.

 **********************************************************************

 Orbital symmetries:
       Occupied  (A) (A) (A) (A) (A) (A) (A) (A) (A) (A) (A) (A)
                 (A) (A) (A) (A) (A) (A) (A) (A) (A) (A) (A) (A)
                 (A) (A) (A) (A) (A) (A) (A) (A) (A)
       Virtual   (A) (A) (A) (A) (A) (A) (A) (A) (A) (A) (A) (A)
                 (A) (A) (A) (A) (A) (A) (A) (A) (A) (A) (A) (A)
                 (A) (A) (A) (A) (A) (A) (A) (A) (A) (A) (A) (A)
                 (A) (A) (A) (A) (A) (A) (A) (A) (A) (A) (A) (A)
                 (A) (A) (A) (A) (A) (A) (A) (A) (A) (A) (A) (A)
                 (A) (A) (A) (A) (A) (A) (A) (A) (A) (A) (A) (A)
                 (A) (A) (A) (A) (A) (A) (A) (A) (A) (A) (A) (A)
                 (A) (A) (A) (A) (A) (A) (A) (A) (A) (A) (A) (A)
 The electronic state is 1-A.
 Alpha  occ. eigenvalues --   -5.40150  -3.39675  -3.39078  -3.39061  -1.68444
 Alpha  occ. eigenvalues --   -1.68245  -1.65311  -1.63138  -1.61357  -1.56630
 Alpha  occ. eigenvalues --   -1.06230  -1.03759  -1.03300  -1.02526  -1.01435
 Alpha  occ. eigenvalues --   -0.99374  -0.98159  -0.97001  -0.96588  -0.95772
 Alpha  occ. eigenvalues --   -0.95769  -0.90204  -0.86995  -0.86280  -0.84925
 Alpha  occ. eigenvalues --   -0.82376  -0.81811  -0.81292  -0.80538  -0.78030
 Alpha  occ. eigenvalues --   -0.76363  -0.74091  -0.73905
 Alpha virt. eigenvalues --   -0.21912  -0.16759  -0.16610  -0.13360  -0.12248
 Alpha virt. eigenvalues --   -0.07919  -0.07602  -0.06516  -0.04943  -0.04929
 Alpha virt. eigenvalues --   -0.04434  -0.03072  -0.02551  -0.02002  -0.01260
 Alpha virt. eigenvalues --   -0.01028   0.00909   0.01244   0.01750   0.02248
 Alpha virt. eigenvalues --    0.02436   0.02873   0.03703   0.04199   0.05473
 Alpha virt. eigenvalues --    0.06722   0.07869   0.10048   0.11300   0.12294
 Alpha virt. eigenvalues --    0.12659   0.13488   0.14322   0.15171   0.16669
 Alpha virt. eigenvalues --    0.17831   0.18481   0.20885   0.22156   0.22323
 Alpha virt. eigenvalues --    0.24238   0.27959   0.28814   0.31700   0.37880
 Alpha virt. eigenvalues --    0.64400   0.64544   0.70258   0.71023   0.89879
 Alpha virt. eigenvalues --    0.97327   1.02912   1.06913   1.08159   1.09136
 Alpha virt. eigenvalues --    1.09646   1.10767   1.11901   1.12330   1.12889
 Alpha virt. eigenvalues --    1.13967   1.16064   1.16547   1.18515   1.19006
 Alpha virt. eigenvalues --    1.20162   1.21031   1.21097   1.21814   1.22346
 Alpha virt. eigenvalues --    1.23261   1.23866   1.25518   1.26975   1.29412
 Alpha virt. eigenvalues --    1.31738   1.33650   1.36097   1.36950   1.38539
 Alpha virt. eigenvalues --    1.40504   1.42823   1.51330   1.58776   2.20909
 Alpha virt. eigenvalues --    2.25314   2.57129   2.65892   2.95255   3.02709
 Alpha virt. eigenvalues --    4.26195  15.50839  41.61026  41.61724  41.74838
 Alpha virt. eigenvalues --   81.49276
          Condensed to atoms (all electrons):
               1          2          3          4          5          6
     1  Hg  18.451645   0.000068   0.000015   0.000003  -0.002944   0.000058
     2  O    0.000068   6.395687   0.253391   0.178767  -0.042379   0.000903
     3  H    0.000015   0.253391   0.243375  -0.005823   0.000787   0.000004
     4  H    0.000003   0.178767  -0.005823   0.146066   0.000877  -0.000000
     5  O   -0.002944  -0.042379   0.000787   0.000877   6.456187   0.263412
     6  H    0.000058   0.000903   0.000004  -0.000000   0.263412   0.263902
     7  H    0.000031   0.175202  -0.005890  -0.000314   0.068739  -0.001781
     8  O    0.000006  -0.053229   0.000670   0.070997  -0.000682   0.000050
     9  H    0.000001   0.000871  -0.000004  -0.001230   0.000045  -0.000000
    10  H    0.000001   0.001988  -0.000016  -0.001096   0.000048  -0.000000
    11  O    0.109244   0.000000   0.000000  -0.000000  -0.000001   0.000001
    12  H   -0.002570  -0.000000   0.000000   0.000000  -0.000000   0.000000
    13  H   -0.004432  -0.000000  -0.000000   0.000000  -0.000000  -0.000000
    14  O   -0.000843  -0.000000  -0.000000  -0.000000  -0.000000  -0.000000
    15  H    0.000359  -0.000000  -0.000000  -0.000000  -0.000000   0.000000
    16  H    0.000594   0.000000   0.000000   0.000000  -0.000000   0.000000
    17  O    0.207455  -0.000436  -0.000003  -0.000008   0.006213   0.000381
    18  H    0.000023   0.000379  -0.000013  -0.000001   0.228722  -0.013661
    19  H   -0.021628   0.000055  -0.000000   0.000000   0.001202   0.000014
               7          8          9         10         11         12
     1  Hg   0.000031   0.000006   0.000001   0.000001   0.109244  -0.002570
     2  O    0.175202  -0.053229   0.000871   0.001988   0.000000  -0.000000
     3  H   -0.005890   0.000670  -0.000004  -0.000016   0.000000   0.000000
     4  H   -0.000314   0.070997  -0.001230  -0.001096  -0.000000   0.000000
     5  O    0.068739  -0.000682   0.000045   0.000048  -0.000001  -0.000000
     6  H   -0.001781   0.000050  -0.000000  -0.000000   0.000001   0.000000
     7  H    0.141662   0.000934  -0.000004  -0.000006  -0.000000  -0.000000
     8  O    0.000934   6.354224   0.265839   0.266356   0.000000   0.000000
     9  H   -0.000004   0.265839   0.249099  -0.014347   0.000000   0.000000
    10  H   -0.000006   0.266356  -0.014347   0.244371   0.000000  -0.000000
    11  O   -0.000000   0.000000   0.000000   0.000000   6.574615   0.161729
    12  H   -0.000000   0.000000   0.000000  -0.000000   0.161729   0.140790
    13  H    0.000000  -0.000000  -0.000000  -0.000000   0.244901  -0.006795
    14  O   -0.000000  -0.000000  -0.000000  -0.000000  -0.052350   0.077208
    15  H   -0.000000  -0.000000   0.000000   0.000000   0.001293  -0.001915
    16  H   -0.000000   0.000000   0.000000   0.000000   0.001527  -0.001853
    17  O    0.000412  -0.000022  -0.000000  -0.000000  -0.001166  -0.000040
    18  H   -0.000170  -0.000006  -0.000000   0.000000   0.000001   0.000000
    19  H    0.000000   0.000000   0.000000   0.000000  -0.000120   0.000000
              13         14         15         16         17         18
     1  Hg  -0.004432  -0.000843   0.000359   0.000594   0.207455   0.000023
     2  O   -0.000000  -0.000000  -0.000000   0.000000  -0.000436   0.000379
     3  H   -0.000000  -0.000000  -0.000000   0.000000  -0.000003  -0.000013
     4  H    0.000000  -0.000000  -0.000000   0.000000  -0.000008  -0.000001
     5  O   -0.000000  -0.000000  -0.000000  -0.000000   0.006213   0.228722
     6  H   -0.000000  -0.000000   0.000000   0.000000   0.000381  -0.013661
     7  H    0.000000  -0.000000  -0.000000  -0.000000   0.000412  -0.000170
     8  O   -0.000000  -0.000000  -0.000000   0.000000  -0.000022  -0.000006
     9  H   -0.000000  -0.000000   0.000000   0.000000  -0.000000  -0.000000
    10  H   -0.000000  -0.000000   0.000000   0.000000  -0.000000   0.000000
    11  O    0.244901  -0.052350   0.001293   0.001527  -0.001166   0.000001
    12  H   -0.006795   0.077208  -0.001915  -0.001853  -0.000040   0.000000
    13  H    0.231516   0.001054  -0.000021  -0.000031  -0.000011   0.000000
    14  O    0.001054   6.365811   0.258883   0.260267   0.000016  -0.000000
    15  H   -0.000021   0.258883   0.238899  -0.013453   0.000000  -0.000000
    16  H   -0.000031   0.260267  -0.013453   0.233251   0.000002   0.000000
    17  O   -0.000011   0.000016   0.000000   0.000002   6.550099   0.011733
    18  H    0.000000  -0.000000  -0.000000   0.000000   0.011733   0.184249
    19  H   -0.000000   0.000008   0.000000  -0.000000   0.245323  -0.000252
              19
     1  Hg  -0.021628
     2  O    0.000055
     3  H   -0.000000
     4  H    0.000000
     5  O    0.001202
     6  H    0.000014
     7  H    0.000000
     8  O    0.000000
     9  H    0.000000
    10  H    0.000000
    11  O   -0.000120
    12  H    0.000000
    13  H   -0.000000
    14  O    0.000008
    15  H    0.000000
    16  H   -0.000000
    17  O    0.245323
    18  H   -0.000252
    19  H    0.299514
 Mulliken charges:
               1
     1  Hg   1.262913
     2  O   -0.911266
     3  H    0.513506
     4  H    0.611763
     5  O   -0.980227
     6  H    0.486717
     7  H    0.621183
     8  O   -0.905137
     9  H    0.499730
    10  H    0.502702
    11  O   -1.039674
    12  H    0.633445
    13  H    0.533818
    14  O   -0.910052
    15  H    0.515954
    16  H    0.519695
    17  O   -1.019948
    18  H    0.588994
    19  H    0.475882
 Sum of Mulliken charges =   2.00000
 Mulliken charges with hydrogens summed into heavy atoms:
               1
     1  Hg   1.262913
     2  O    0.835186
     5  O    0.095484
     8  O    0.097295
    11  O    0.127590
    14  O    0.125597
    17  O   -0.544066
         Mulliken charges condensed to fragments:
      1      1.262913
      2      0.737087
 APT charges:
               1
     1  Hg   1.190979
     2  O   -1.002747
     3  H    0.401499
     4  H    0.825872
     5  O   -0.903379
     6  H    0.364117
     7  H    0.831694
     8  O   -0.800393
     9  H    0.387093
    10  H    0.393250
    11  O   -0.955667
    12  H    0.860231
    13  H    0.352693
    14  O   -0.815085
    15  H    0.391939
    16  H    0.399440
    17  O   -0.725438
    18  H    0.545841
    19  H    0.258062
 Sum of APT charges =   2.00000
 APT charges with hydrogens summed into heavy atoms:
               1
     1  Hg   1.190979
     2  O    1.056318
     5  O    0.006579
     8  O   -0.020051
    11  O    0.257257
    14  O   -0.023706
    17  O   -0.467377
         APT charges condensed to fragments:
      1      1.190979
      2      0.809021
 Electronic spatial extent (au):  <R**2>=           3923.1136
 Charge=              2.0000 electrons
 Dipole moment (field-independent basis, Debye):
    X=             -6.8753    Y=             -0.0385    Z=              0.9489  Tot=              6.9405
 Quadrupole moment (field-independent basis, Debye-Ang):
   XX=            194.8615   YY=            -43.3625   ZZ=            -45.5130
   XY=              7.6495   XZ=             -3.7642   YZ=             -1.5465
 Traceless Quadrupole moment (field-independent basis, Debye-Ang):
   XX=            159.5329   YY=            -78.6912   ZZ=            -80.8417
   XY=              7.6495   XZ=             -3.7642   YZ=             -1.5465
 Octapole moment (field-independent basis, Debye-Ang**2):
  XXX=           -761.4247  YYY=            -19.6593  ZZZ=             -7.4388  XYY=             -0.3987
  XXY=            128.0972  XXZ=             56.1363  XZZ=             26.2914  YZZ=              8.5498
  YYZ=             -8.1331  XYZ=             26.7904
 Hexadecapole moment (field-independent basis, Debye-Ang**3):
 XXXX=           6929.0875 YYYY=           -177.8968 ZZZZ=           -106.0833 XXXY=           -581.2739
 XXXZ=            210.6372 YYYX=             17.9925 YYYZ=              3.2678 ZZZX=            -60.8782
 ZZZY=             -4.4145 XXYY=           -391.3636 XXZZ=           -564.5367 YYZZ=            -42.8825
 XXYZ=            -27.8379 YYXZ=             39.8451 ZZXY=             15.2352
 N-N= 2.894942534772D+02 E-N=-1.125414066021D+03  KE= 1.319025304577D+02
  Exact polarizability:  83.071   4.475  49.008   0.575  -0.601  47.706
 Approx polarizability:  45.259   0.647  33.890   0.001   0.040  34.112
 No NMR shielding tensors so no spin-rotation constants.
 Leave Link  601 at Wed May 11 21:42:00 2022, MaxMem= 67108864000 cpu:               4.1 elap:               0.2
 (Enter /cm/shared/apps/gaussian/intel/EM64T/SSE4_2-enabled/binary//g16/l701.exe)
 ... and contract with generalized density number  2.
 Compute integral second derivatives.
   1 Symmetry operations used in ECPInt.
 ECPInt:  NShTT=    2346 NPrTT=    7709 LenC2=    2072 LenP2D=    5120.
 LDataN:  DoStor=T MaxTD1= 9 Len=  602
 Leave Link  701 at Wed May 11 21:42:02 2022, MaxMem= 67108864000 cpu:              35.1 elap:               1.3
 (Enter /cm/shared/apps/gaussian/intel/EM64T/SSE4_2-enabled/binary//g16/l702.exe)
 L702 exits ... SP integral derivatives will be done elsewhere.
 Leave Link  702 at Wed May 11 21:42:02 2022, MaxMem= 67108864000 cpu:               0.8 elap:               0.0
 (Enter /cm/shared/apps/gaussian/intel/EM64T/SSE4_2-enabled/binary//g16/l703.exe)
 Integral derivatives from FoFJK, PRISM(SPDF).
 Compute integral second derivatives, UseDBF=F ICtDFT=           0.
 Calling FoFJK, ICntrl=  10100127 FMM=F ISym2X=0 I1Cent= 0 IOpClX= 0 NMat=1 NMatS=1 NMatT=0.
 FoFJK:  IHMeth= 1 ICntrl=10100127 DoSepK=F KAlg= 0 I1Cent=           0 FoldK=F
 IRaf=         0 NMat=       1 IRICut=       1 DoRegI=T DoRafI=F ISym2E= 0 IDoP0=0 IntGTp=1.
 FoFCou: FMM=F IPFlag=           0 FMFlag=      100000 FMFlg1=         800
         NFxFlg=           0 DoJE=F BraDBF=F KetDBF=F FulRan=T
         wScrn=  0.000000 ICntrl=  10100127 IOpCl=  0 I1Cent=           0 NGrid=           0
         NMat0=    1 NMatS0=      1 NMatT0=    0 NMatD0=    1 NMtDS0=    0 NMtDT0=    0
 Symmetry not used in FoFCou.
 Leave Link  703 at Wed May 11 21:42:02 2022, MaxMem= 67108864000 cpu:              17.1 elap:               0.6
 (Enter /cm/shared/apps/gaussian/intel/EM64T/SSE4_2-enabled/binary//g16/l716.exe)
 Dipole        =-2.88791713D+00 1.49972606D-03 4.46384506D-01
 Polarizability= 8.30709804D+01 4.47501927D+00 4.90079471D+01
                 5.75273209D-01-6.01325530D-01 4.77058737D+01
 Full mass-weighted force constant matrix:
 Low frequencies --- -365.6240 -322.4476 -262.0809 -188.6049 -104.9328  -98.8906
 Low frequencies ---  -51.6966  -28.1581  -22.4912
 ******    7 imaginary frequencies (negative Signs) ****** 
 Diagonal vibrational polarizability:
      366.3254597     397.9208268     278.7720292
 Harmonic frequencies (cm**-1), IR intensities (KM/Mole), Raman scattering
 activities (A**4/AMU), depolarization ratios for plane and unpolarized
 incident light, reduced masses (AMU), force constants (mDyne/A),
 and normal coordinates:
                      1                      2                      3
                      A                      A                      A
 Frequencies --   -364.4389              -320.5120              -254.0191
 Red. masses --      1.0199                 1.0295                 1.0607
 Frc consts  --      0.0798                 0.0623                 0.0403
 IR Inten    --     36.9278                49.4505               101.9426
  Atom  AN      X      Y      Z        X      Y      Z        X      Y      Z
     1  80    -0.00  -0.00   0.00     0.00  -0.00   0.00    -0.00   0.00  -0.00
     2   8     0.00  -0.00  -0.00    -0.00  -0.00   0.00    -0.00   0.01  -0.02
     3   1     0.00  -0.00  -0.01     0.00  -0.00   0.01    -0.00   0.00  -0.06
     4   1     0.00   0.00  -0.04    -0.00  -0.00  -0.00    -0.00   0.00  -0.00
     5   8    -0.00   0.01   0.00     0.00   0.01   0.00    -0.00  -0.01  -0.03
     6   1    -0.00   0.06   0.01     0.00   0.03   0.00     0.04   0.03  -0.02
     7   1    -0.01   0.00   0.01    -0.00   0.00   0.00    -0.01  -0.01  -0.01
     8   8    -0.01  -0.01   0.02     0.00   0.00  -0.01    -0.00   0.00   0.02
     9   1    -0.37  -0.48  -0.36    -0.02  -0.01  -0.03     0.02   0.01   0.05
    10   1     0.43   0.54   0.08     0.02   0.01  -0.02    -0.03  -0.01   0.03
    11   8     0.00  -0.00  -0.01    -0.01   0.01  -0.00    -0.00   0.01   0.00
    12   1     0.00  -0.00  -0.01    -0.01   0.05   0.02    -0.01  -0.00   0.01
    13   1     0.00  -0.01  -0.01    -0.01   0.02   0.00     0.01   0.00   0.00
    14   8    -0.00   0.01  -0.00     0.01  -0.02  -0.02    -0.01  -0.02   0.01
    15   1    -0.01  -0.01   0.01     0.22   0.52  -0.45    -0.03  -0.07   0.03
    16   1     0.01   0.02  -0.03    -0.29  -0.25   0.57     0.03  -0.01  -0.02
    17   8     0.00  -0.00   0.01     0.00  -0.00   0.01     0.01  -0.01   0.01
    18   1    -0.01  -0.02   0.01    -0.00  -0.00   0.00    -0.02  -0.03  -0.07
    19   1     0.01  -0.01   0.04     0.02  -0.01   0.08     0.27  -0.20   0.93
                      4                      5                      6
                      A                      A                      A
 Frequencies --   -183.8751               -99.9433               -75.4501
 Red. masses --      1.3909                 2.6322                 3.5431
 Frc consts  --      0.0277                 0.0155                 0.0119
 IR Inten    --     44.4656                 9.5545                12.6345
  Atom  AN      X      Y      Z        X      Y      Z        X      Y      Z
     1  80    -0.00   0.00  -0.00    -0.00  -0.01  -0.00     0.01   0.01  -0.03
     2   8    -0.00  -0.03   0.02     0.06   0.06  -0.14    -0.11  -0.09   0.20
     3   1    -0.01  -0.03   0.08     0.09   0.03  -0.26    -0.16  -0.05   0.37
     4   1     0.01  -0.03   0.01     0.03   0.02  -0.09    -0.05  -0.03   0.16
     5   8     0.02   0.08  -0.06    -0.01   0.07  -0.03     0.01  -0.05  -0.03
     6   1     0.04   0.89   0.05    -0.08   0.26  -0.00     0.13   0.00  -0.03
     7   1     0.00  -0.02   0.01     0.03   0.05  -0.09    -0.06  -0.07   0.11
     8   8     0.01  -0.01   0.02    -0.03  -0.05   0.15     0.04   0.07   0.00
     9   1     0.03   0.01   0.04     0.13  -0.22   0.32    -0.08   0.22  -0.12
    10   1    -0.02  -0.04   0.02    -0.27   0.04   0.30     0.22   0.01  -0.11
    11   8    -0.01   0.03   0.04     0.05  -0.12  -0.09     0.07  -0.09  -0.01
    12   1    -0.01   0.01   0.02     0.02  -0.05  -0.02     0.01  -0.06   0.08
    13   1    -0.02   0.10   0.05     0.12  -0.35  -0.12     0.17  -0.29  -0.03
    14   8    -0.00  -0.03   0.01    -0.03   0.11   0.09    -0.07   0.06   0.24
    15   1    -0.03  -0.06  -0.01     0.11   0.25   0.20     0.06   0.17   0.37
    16   1     0.04  -0.04  -0.00    -0.24   0.19   0.11    -0.27   0.13   0.26
    17   8     0.03  -0.09  -0.03    -0.02   0.03   0.02    -0.01   0.01  -0.10
    18   1    -0.03  -0.34   0.07     0.00  -0.01   0.06    -0.03  -0.05  -0.12
    19   1     0.09  -0.06  -0.14    -0.06   0.05  -0.05     0.04  -0.01   0.02
                      7                      8                      9
                      A                      A                      A
 Frequencies --    -43.4675                32.7191                52.2750
 Red. masses --      5.1996                 5.7036                 5.4671
 Frc consts  --      0.0058                 0.0036                 0.0088
 IR Inten    --     12.5537                 4.1829                 2.2973
  Atom  AN      X      Y      Z        X      Y      Z        X      Y      Z
     1  80    -0.02  -0.03   0.01    -0.04   0.03  -0.02    -0.02   0.03   0.04
     2   8     0.05   0.10  -0.05     0.26  -0.04  -0.02    -0.08  -0.23  -0.10
     3   1    -0.03   0.12  -0.12     0.27  -0.05  -0.12    -0.18  -0.17  -0.00
     4   1     0.11   0.14  -0.01     0.24  -0.06  -0.03     0.04  -0.14  -0.08
     5   8     0.06  -0.15  -0.02     0.11  -0.02   0.20    -0.09  -0.10  -0.15
     6   1     0.04  -0.19  -0.02    -0.01   0.07   0.22    -0.12   0.11  -0.12
     7   1     0.05  -0.01  -0.03     0.21  -0.04   0.08    -0.05  -0.25  -0.14
     8   8     0.17   0.20   0.03     0.24  -0.05  -0.06     0.27   0.09   0.05
     9   1     0.18   0.21   0.05     0.23  -0.01  -0.08     0.31   0.17   0.09
    10   1     0.16   0.24   0.05     0.26  -0.07  -0.09     0.29   0.19   0.09
    11   8    -0.11   0.12   0.01    -0.02  -0.02  -0.07     0.06  -0.13  -0.09
    12   1    -0.08   0.16  -0.03    -0.07  -0.05  -0.02     0.07  -0.09  -0.08
    13   1    -0.16   0.20   0.01     0.03  -0.09  -0.07     0.07  -0.33  -0.13
    14   8    -0.06   0.28  -0.02    -0.17  -0.16   0.11     0.11  -0.03  -0.14
    15   1    -0.00   0.33   0.04    -0.17  -0.18   0.15     0.13   0.01  -0.19
    16   1    -0.15   0.34  -0.06    -0.17  -0.19   0.17     0.10  -0.03  -0.14
    17   8     0.07  -0.21  -0.02     0.01  -0.01   0.12    -0.04   0.06   0.02
    18   1     0.04  -0.22  -0.01     0.14  -0.06   0.31    -0.05  -0.10  -0.07
    19   1     0.15  -0.18  -0.11    -0.02   0.02  -0.01    -0.04   0.07  -0.04
                     10                     11                     12
                      A                      A                      A
 Frequencies --     83.6017                96.3829               115.2198
 Red. masses --      5.8376                 4.8279                 3.9527
 Frc consts  --      0.0240                 0.0264                 0.0309
 IR Inten    --     36.7353                 7.8325                 7.0676
  Atom  AN      X      Y      Z        X      Y      Z        X      Y      Z
     1  80    -0.05  -0.01  -0.00    -0.02   0.04   0.04    -0.01   0.02  -0.02
     2   8     0.18   0.00   0.06     0.06   0.13   0.06    -0.01   0.05  -0.03
     3   1     0.23  -0.02   0.10     0.07   0.13   0.07    -0.03   0.03  -0.24
     4   1     0.13  -0.04   0.03     0.03   0.11   0.06    -0.02   0.04  -0.02
     5   8     0.18   0.12  -0.03     0.19  -0.13  -0.11    -0.14  -0.13   0.22
     6   1     0.29  -0.09  -0.06     0.27  -0.16  -0.12    -0.22   0.30   0.28
     7   1     0.18   0.08   0.05     0.10   0.09   0.01    -0.08  -0.05   0.10
     8   8     0.09  -0.07  -0.01    -0.14  -0.03  -0.06    -0.05   0.03  -0.07
     9   1     0.07  -0.08  -0.04    -0.19  -0.07  -0.11    -0.06   0.06  -0.08
    10   1     0.11  -0.10  -0.03    -0.12  -0.11  -0.10    -0.04  -0.03  -0.10
    11   8     0.02  -0.09   0.21     0.06  -0.14  -0.16     0.10  -0.12   0.09
    12   1     0.07  -0.07   0.20     0.04  -0.10  -0.11     0.09  -0.10   0.11
    13   1     0.04   0.02   0.24     0.10  -0.48  -0.22     0.16  -0.15   0.10
    14   8     0.22   0.12  -0.02     0.01  -0.07  -0.07     0.20   0.05   0.02
    15   1     0.21   0.16  -0.09     0.05  -0.01  -0.06     0.24   0.12  -0.01
    16   1     0.21   0.17  -0.10    -0.06  -0.06  -0.04     0.15   0.10  -0.03
    17   8    -0.13   0.09  -0.21     0.06  -0.16  -0.07     0.04  -0.09   0.02
    18   1     0.15   0.22  -0.18     0.13  -0.24  -0.19    -0.14  -0.35   0.35
    19   1    -0.06  -0.01   0.27     0.20  -0.13  -0.15     0.14  -0.09   0.02
                     13                     14                     15
                      A                      A                      A
 Frequencies --    159.2740               220.9456               290.7724
 Red. masses --      7.3878                 3.3631                 1.1346
 Frc consts  --      0.1104                 0.0967                 0.0565
 IR Inten    --     20.2914                36.8295                80.8090
  Atom  AN      X      Y      Z        X      Y      Z        X      Y      Z
     1  80    -0.03   0.01  -0.05    -0.01   0.01  -0.00    -0.00   0.00  -0.00
     2   8    -0.03   0.00   0.03    -0.06  -0.06  -0.03     0.01  -0.04   0.00
     3   1    -0.05   0.04   0.28     0.00  -0.08   0.04    -0.14   0.08   0.47
     4   1     0.01   0.03   0.02    -0.09  -0.06  -0.05     0.11   0.09  -0.30
     5   8     0.13  -0.02  -0.23    -0.05   0.24   0.05     0.02  -0.02   0.03
     6   1     0.05  -0.26  -0.26    -0.05  -0.68  -0.07    -0.01  -0.02   0.03
     7   1     0.08   0.03  -0.16    -0.09   0.06  -0.04     0.03   0.02  -0.03
     8   8    -0.03   0.01   0.04     0.05  -0.04   0.02    -0.01   0.04  -0.05
     9   1    -0.03  -0.05   0.03     0.09  -0.03   0.07     0.23  -0.37   0.22
    10   1    -0.05   0.04   0.05     0.04   0.07   0.08    -0.41   0.30   0.24
    11   8     0.03  -0.05   0.17     0.02  -0.02   0.00    -0.00   0.02   0.00
    12   1     0.05  -0.10   0.17    -0.00  -0.01   0.03    -0.03   0.08   0.05
    13   1     0.07   0.21   0.24     0.06  -0.11  -0.01     0.06  -0.12  -0.02
    14   8     0.12  -0.00   0.07     0.03  -0.02   0.03     0.01   0.00   0.02
    15   1     0.13   0.02   0.06     0.02  -0.02   0.00    -0.07  -0.05  -0.09
    16   1     0.11   0.03   0.04     0.04  -0.03   0.03     0.13  -0.07   0.04
    17   8     0.09  -0.04   0.50     0.11  -0.24  -0.04    -0.01   0.00  -0.02
    18   1     0.20   0.09  -0.16    -0.08   0.41  -0.12     0.02  -0.03   0.04
    19   1    -0.16   0.11  -0.22     0.22  -0.21  -0.12     0.00  -0.00   0.02
                     16                     17                     18
                      A                      A                      A
 Frequencies --    295.6469               370.7109               392.7039
 Red. masses --      1.1702                 3.9314                 4.4494
 Frc consts  --      0.0603                 0.3183                 0.4043
 IR Inten    --    115.7878               142.0425                68.3031
  Atom  AN      X      Y      Z        X      Y      Z        X      Y      Z
     1  80     0.00   0.01   0.00    -0.02  -0.01   0.01    -0.00  -0.00   0.00
     2   8     0.00  -0.02  -0.00    -0.01   0.01   0.00    -0.19  -0.13  -0.16
     3   1    -0.04   0.01   0.13    -0.01   0.01   0.02    -0.16  -0.17  -0.37
     4   1     0.03   0.02  -0.09    -0.01   0.02   0.00    -0.20  -0.10  -0.03
     5   8     0.00   0.00   0.01     0.01  -0.00  -0.01     0.33   0.03   0.16
     6   1    -0.00  -0.01   0.01     0.01  -0.00  -0.01     0.30   0.06   0.17
     7   1     0.00   0.01  -0.01    -0.01   0.01  -0.01    -0.27  -0.19  -0.16
     8   8    -0.00   0.01  -0.02     0.01  -0.01  -0.01    -0.09   0.08   0.01
     9   1     0.06  -0.10   0.05     0.01  -0.01  -0.00    -0.09   0.28   0.01
    10   1    -0.11   0.08   0.06     0.01  -0.01  -0.00     0.02   0.17  -0.00
    11   8     0.01  -0.06   0.02     0.04   0.20  -0.22    -0.01  -0.00  -0.00
    12   1     0.11  -0.29  -0.18    -0.02   0.08  -0.44    -0.01   0.00  -0.00
    13   1    -0.21   0.52   0.09    -0.11   0.42  -0.21    -0.01  -0.00  -0.00
    14   8    -0.03  -0.04  -0.05     0.25  -0.07   0.16     0.00   0.00   0.00
    15   1     0.26   0.16   0.32     0.43   0.03   0.42    -0.00   0.00  -0.01
    16   1    -0.46   0.22  -0.14     0.04   0.06   0.11     0.01   0.00  -0.00
    17   8     0.01  -0.00  -0.01    -0.04   0.00  -0.00    -0.00   0.04  -0.00
    18   1    -0.00  -0.01   0.01     0.01  -0.01  -0.00     0.33  -0.05   0.21
    19   1     0.03  -0.01   0.03    -0.04   0.00  -0.01    -0.03   0.03   0.04
                     19                     20                     21
                      A                      A                      A
 Frequencies --    410.9605               416.9198               463.3087
 Red. masses --      1.1459                 3.4079                 1.4115
 Frc consts  --      0.1140                 0.3490                 0.1785
 IR Inten    --     59.7612               221.9067                53.8205
  Atom  AN      X      Y      Z        X      Y      Z        X      Y      Z
     1  80    -0.00   0.00  -0.00    -0.00   0.00  -0.00     0.00   0.00   0.00
     2   8    -0.03   0.03   0.04     0.20  -0.19   0.02    -0.00   0.00  -0.00
     3   1    -0.05  -0.01  -0.48     0.28  -0.27  -0.35    -0.00   0.00  -0.01
     4   1    -0.05   0.05  -0.07     0.19  -0.36  -0.03    -0.00   0.00   0.00
     5   8    -0.01  -0.01   0.01    -0.06   0.01  -0.02    -0.00  -0.00  -0.00
     6   1     0.53   0.07   0.00     0.22  -0.04  -0.04    -0.01  -0.01  -0.00
     7   1    -0.18  -0.10   0.29     0.15  -0.12   0.25     0.00   0.00  -0.01
     8   8     0.04  -0.03  -0.04    -0.17   0.22   0.03     0.00  -0.00   0.01
     9   1     0.19  -0.16   0.12    -0.23   0.16  -0.03     0.00  -0.00   0.01
    10   1    -0.12   0.16   0.12    -0.22   0.11  -0.01     0.00   0.00   0.01
    11   8     0.00  -0.00   0.00     0.00   0.01  -0.01     0.01  -0.13  -0.06
    12   1    -0.00   0.00   0.00     0.00   0.01  -0.01    -0.00   0.16  -0.04
    13   1    -0.00   0.01   0.01    -0.00   0.02  -0.01    -0.19   0.72   0.08
    14   8    -0.00  -0.00   0.00     0.01  -0.00   0.01    -0.00   0.06   0.05
    15   1    -0.01  -0.01  -0.01     0.01  -0.01   0.01    -0.26  -0.15  -0.23
    16   1     0.01  -0.01   0.01     0.02  -0.01   0.01     0.38  -0.23   0.22
    17   8     0.00   0.01   0.02     0.00  -0.02   0.01     0.00  -0.00  -0.01
    18   1    -0.19   0.00  -0.40    -0.13   0.15  -0.26     0.00  -0.01   0.01
    19   1    -0.01   0.03  -0.07    -0.00  -0.01  -0.05     0.03  -0.00  -0.00
                     22                     23                     24
                      A                      A                      A
 Frequencies --    544.7404               578.1483               593.9714
 Red. masses --      1.2764                 1.0769                 4.5326
 Frc consts  --      0.2232                 0.2121                 0.9422
 IR Inten    --     30.6347               251.9450               127.0690
  Atom  AN      X      Y      Z        X      Y      Z        X      Y      Z
     1  80     0.00  -0.00   0.00     0.00  -0.00  -0.00    -0.01  -0.01   0.00
     2   8     0.02   0.00  -0.11     0.00   0.01   0.01    -0.01  -0.00   0.00
     3   1    -0.07   0.10   0.59     0.42  -0.16   0.12    -0.08   0.02  -0.06
     4   1     0.02   0.02  -0.04    -0.26  -0.23  -0.10     0.04   0.04   0.02
     5   8    -0.03  -0.01   0.05    -0.00  -0.02  -0.00     0.02   0.01   0.00
     6   1     0.52   0.07   0.04    -0.01  -0.01  -0.00    -0.03  -0.06  -0.01
     7   1    -0.07   0.12   0.05    -0.03   0.33  -0.01     0.01  -0.07  -0.01
     8   8    -0.00  -0.01   0.04    -0.02  -0.05  -0.02     0.01   0.01   0.00
     9   1    -0.14   0.14  -0.10     0.17   0.43   0.17    -0.03  -0.10  -0.03
    10   1     0.16  -0.19  -0.11     0.15   0.48   0.15    -0.04  -0.09  -0.02
    11   8     0.00  -0.00  -0.00     0.02   0.01   0.00     0.38   0.12   0.02
    12   1     0.01   0.00  -0.00     0.02   0.00   0.00     0.45   0.09   0.06
    13   1     0.00   0.01  -0.00     0.01   0.01   0.00     0.29   0.24   0.03
    14   8    -0.00   0.00  -0.00    -0.00   0.00  -0.01    -0.10   0.07  -0.12
    15   1    -0.00  -0.00  -0.00    -0.01  -0.01   0.01    -0.21  -0.26   0.21
    16   1     0.00  -0.00   0.00    -0.00  -0.01   0.01    -0.08  -0.25   0.36
    17   8    -0.01   0.00   0.02    -0.02  -0.00   0.01    -0.20  -0.09   0.03
    18   1    -0.22  -0.03  -0.38    -0.04  -0.12  -0.01     0.01  -0.06   0.02
    19   1     0.00   0.01  -0.03     0.01   0.00  -0.00    -0.06  -0.08   0.01
                     25                     26                     27
                      A                      A                      A
 Frequencies --    658.6599               666.8174               680.7355
 Red. masses --      1.4336                 1.1565                 4.5631
 Frc consts  --      0.3664                 0.3030                 1.2459
 IR Inten    --    336.5685               302.7484                49.4261
  Atom  AN      X      Y      Z        X      Y      Z        X      Y      Z
     1  80    -0.01  -0.00   0.00     0.00   0.00  -0.00    -0.04  -0.02   0.01
     2   8     0.01  -0.00   0.00    -0.05   0.01   0.00    -0.01   0.01   0.00
     3   1    -0.07   0.04   0.01     0.49  -0.23   0.01     0.18  -0.07   0.04
     4   1     0.04   0.03   0.01    -0.29  -0.19  -0.05    -0.10  -0.07  -0.02
     5   8    -0.01  -0.00  -0.00     0.01  -0.01   0.01    -0.02  -0.03  -0.00
     6   1     0.01   0.05   0.01     0.02  -0.02   0.00     0.04   0.13   0.02
     7   1     0.01  -0.05   0.00    -0.07   0.36  -0.03    -0.02   0.12  -0.02
     8   8    -0.01  -0.01  -0.00     0.05   0.06   0.01     0.01   0.02   0.00
     9   1     0.02   0.09   0.02    -0.08  -0.45  -0.11    -0.02  -0.10  -0.02
    10   1     0.04   0.07   0.02    -0.20  -0.35  -0.08    -0.05  -0.07  -0.01
    11   8    -0.03  -0.01   0.02    -0.02  -0.01   0.00     0.21   0.07  -0.01
    12   1     0.05   0.07  -0.07    -0.01   0.01  -0.01     0.14  -0.03   0.07
    13   1    -0.07  -0.13  -0.02    -0.02  -0.04  -0.01     0.23   0.25   0.03
    14   8     0.03   0.05  -0.08     0.01   0.01  -0.01    -0.07  -0.02   0.02
    15   1    -0.01  -0.36   0.58     0.01  -0.06   0.11    -0.07   0.24  -0.46
    16   1    -0.09  -0.32   0.57    -0.01  -0.06   0.10     0.04   0.20  -0.40
    17   8     0.12   0.05  -0.02    -0.01   0.00   0.00     0.35   0.16  -0.06
    18   1     0.02   0.09   0.01    -0.03  -0.11  -0.02     0.04   0.21   0.00
    19   1     0.03   0.04   0.01     0.02   0.01  -0.01     0.12   0.14  -0.01
                     28                     29                     30
                      A                      A                      A
 Frequencies --    791.6753               975.5566              1029.5756
 Red. masses --      1.1335                 1.0659                 1.0571
 Frc consts  --      0.4186                 0.5977                 0.6602
 IR Inten    --    320.9553                31.7888                92.6661
  Atom  AN      X      Y      Z        X      Y      Z        X      Y      Z
     1  80     0.00   0.00   0.00     0.00  -0.00   0.00    -0.00  -0.00  -0.00
     2   8    -0.01   0.01  -0.00     0.00   0.00  -0.00    -0.00   0.00   0.00
     3   1     0.10  -0.03   0.04     0.00  -0.00  -0.00     0.02  -0.01   0.01
     4   1    -0.06  -0.03   0.01    -0.00   0.00   0.00    -0.00  -0.00   0.03
     5   8    -0.01  -0.06   0.00    -0.00  -0.00  -0.00    -0.00  -0.01   0.00
     6   1     0.11   0.36   0.05     0.00   0.00   0.00     0.02   0.08   0.01
     7   1     0.00   0.03  -0.06     0.00  -0.00  -0.00     0.02  -0.02  -0.05
     8   8     0.00  -0.00  -0.00    -0.00   0.00   0.00     0.00  -0.00  -0.00
     9   1     0.01  -0.01   0.01     0.00   0.00   0.00     0.01  -0.01   0.00
    10   1    -0.01   0.02   0.01    -0.00   0.00   0.00    -0.00   0.01   0.01
    11   8    -0.00  -0.00  -0.00    -0.03  -0.00  -0.04    -0.00   0.00   0.00
    12   1     0.00  -0.00   0.00    -0.39  -0.12   0.27     0.01   0.02  -0.01
    13   1    -0.01   0.00  -0.00     0.79   0.26   0.22    -0.03  -0.01  -0.01
    14   8     0.00  -0.00   0.00     0.01   0.00  -0.03    -0.00  -0.00   0.00
    15   1     0.00   0.00  -0.00     0.04  -0.03   0.11     0.00   0.00  -0.00
    16   1     0.00   0.00   0.00    -0.07  -0.01   0.03     0.00   0.00  -0.00
    17   8    -0.01  -0.06  -0.01    -0.00   0.00  -0.00    -0.05   0.02   0.02
    18   1     0.24   0.83   0.05     0.00   0.01   0.00     0.07   0.26   0.02
    19   1    -0.27  -0.09   0.05     0.03   0.01  -0.01     0.92   0.15  -0.22
                     31                     32                     33
                      A                      A                      A
 Frequencies --   1251.7990              1407.2908              1486.0905
 Red. masses --      1.0427                 1.0554                 1.0770
 Frc consts  --      0.9627                 1.2315                 1.4014
 IR Inten    --     91.9419               192.8572               542.8712
  Atom  AN      X      Y      Z        X      Y      Z        X      Y      Z
     1  80    -0.00   0.00   0.00    -0.00   0.00  -0.00     0.00   0.00  -0.00
     2   8    -0.02   0.00  -0.00     0.00   0.00   0.00     0.02   0.01  -0.05
     3   1     0.15  -0.07   0.02     0.00   0.00   0.00     0.02   0.00   0.21
     4   1     0.07   0.03   0.62    -0.00  -0.00   0.00    -0.14  -0.12   0.66
     5   8    -0.02   0.01   0.03    -0.00   0.00   0.00     0.01   0.00  -0.02
     6   1     0.18   0.01   0.02    -0.00   0.00   0.00    -0.11  -0.03  -0.02
     7   1     0.32  -0.13  -0.59    -0.00  -0.00   0.00    -0.29  -0.13   0.56
     8   8    -0.00   0.01  -0.03     0.00   0.00  -0.00     0.00   0.01  -0.03
     9   1     0.09  -0.10   0.06     0.00   0.00  -0.00     0.08  -0.12   0.06
    10   1    -0.06   0.13   0.06    -0.00   0.00  -0.00    -0.07   0.09   0.05
    11   8    -0.00   0.00  -0.00     0.01  -0.03   0.01     0.00   0.00   0.00
    12   1     0.00  -0.00   0.00     0.00   0.94   0.13    -0.01  -0.00  -0.00
    13   1     0.00   0.00  -0.00     0.04   0.05   0.04     0.00  -0.00   0.00
    14   8     0.00   0.00   0.00    -0.01  -0.04  -0.02    -0.00  -0.00   0.00
    15   1    -0.00  -0.00   0.00     0.16   0.08   0.16     0.00   0.00   0.00
    16   1    -0.00   0.00   0.00    -0.11   0.10  -0.14     0.00  -0.00   0.00
    17   8     0.00   0.00   0.00     0.00  -0.00   0.00    -0.00  -0.00  -0.00
    18   1    -0.11  -0.07  -0.12    -0.00  -0.00   0.00     0.07   0.01   0.10
    19   1    -0.04  -0.00   0.00    -0.01  -0.00   0.00     0.01  -0.00   0.00
                     34                     35                     36
                      A                      A                      A
 Frequencies --   1652.9170              1707.9935              1747.7965
[...]
 ,0.13022361,0.00044434,0.00067981,0.00022591,0.02549718,-0.10843449,-0
 .01849217,0.02506610,-0.01437175,-0.00648634,-0.02596694,0.10719183,0.
 00033412,0.00043198,0.00027245,0.00623165,-0.00760805,-0.04345024,0.01
 063786,-0.01186067,-0.00027212,-0.01953120,0.01733994,0.07533049,0.002
 31801,0.00402544,0.00140062,-0.03160458,-0.02568854,0.02852595,-0.0025
 9638,0.00183694,0.00215408,0.00642890,-0.00621430,-0.00291330,0.543098
 46,0.00146691,-0.00127877,0.00003985,-0.02823459,-0.00167763,0.0156710
 4,0.00116963,0.00136445,0.00016447,0.00504529,-0.00876601,-0.00142588,
 -0.05326438,0.09594819,0.00038781,-0.00004238,-0.00025557,0.02631580,0
 .01369369,-0.00275007,0.00295714,0.00078941,-0.00301873,-0.00240334,0.
 00365374,-0.00040932,0.10005966,-0.15864343,0.55581953,-0.00083375,-0.
 00037779,-0.00034968,-0.00700134,-0.00284454,0.00068287,-0.00037445,-0
 .00074433,0.00095237,0.00031326,-0.00106378,0.00081018,-0.06468599,0.0
 0341574,-0.01880354,0.06501611,-0.00025477,0.00074184,-0.00011507,-0.0
 0196152,-0.00141488,-0.00077798,-0.00078484,-0.00050557,0.00104344,-0.
 00101397,0.00077856,0.00058280,0.01658077,-0.04439535,0.11265709,-0.01
 628631,0.03939558,-0.00036186,-0.00022136,0.00002393,-0.00047017,0.000
 00060,0.00148869,0.00032420,0.00018518,-0.00029035,0.00017374,0.000286
 87,-0.00031266,-0.07017138,0.12709707,-0.45934908,0.06225604,-0.129137
 02,0.47317046,-0.00188055,-0.00176928,-0.00089584,-0.11948079,-0.04558
 236,0.04937396,0.00434355,-0.00407208,0.00139708,-0.01910690,-0.000370
 15,0.01461054,-0.00949999,0.01460624,-0.01524489,0.01228911,0.00340495
 ,-0.00190631,0.13169260,-0.00099919,-0.00069276,-0.00044662,-0.0381350
 0,-0.10996537,0.01271660,-0.02321652,-0.01307033,0.01696442,0.00026706
 ,0.02872501,-0.00346719,0.01200426,-0.01610820,0.00104561,0.00273824,0
 .00188304,-0.00086211,0.03684627,0.11062164,0.00067018,0.00090767,0.00
 074852,0.07872638,0.03613875,-0.08943650,-0.01928785,-0.01347727,0.012
 93982,0.00639250,-0.00295508,-0.00215961,-0.02274708,-0.00567783,-0.02
 317506,0.00562168,0.00582095,-0.00321982,-0.04447495,-0.01712205,0.094
 85590,0.00056492,0.00046033,0.00012452,-0.04007612,0.03107887,0.020698
 95,-0.00592688,0.00024505,0.00082184,-0.00236877,-0.00603464,-0.011829
 27,-0.00303861,-0.00248792,0.00165232,-0.00024370,0.00019394,-0.000150
 11,0.00446154,0.00650415,-0.00366484,0.49252372,-0.00020650,-0.0004878
 5,-0.00013814,0.03543755,-0.00634627,-0.01424393,0.00000557,0.00147283
 ,0.00115952,-0.01729142,-0.01436062,0.00733924,0.00293826,0.00414452,-
 0.00151624,0.00047952,-0.00073818,-0.00013320,-0.00521142,-0.00937488,
 0.00373632,-0.06510506,0.06110841,-0.00017317,-0.00021173,-0.00019133,
 0.02000811,-0.01094804,0.00741772,-0.00003223,0.00172070,-0.00027037,-
 0.01102101,0.00159364,-0.03697780,0.00173453,0.00087499,0.00005166,-0.
 00046936,-0.00005936,0.00011802,-0.00305806,-0.00202600,0.00067217,0.0
 7053405,-0.03941623,0.67878884,-0.00010912,-0.00005336,-0.00003075,-0.
 00027835,0.00198924,0.00243828,-0.00111010,0.00064974,-0.00007827,-0.0
 0161171,-0.00458280,-0.00804464,0.00036151,-0.00017668,0.00012686,-0.0
 0026577,0.00007436,0.00008652,-0.00054137,0.00038425,-0.00032097,-0.35
 103633,0.04615848,-0.22826104,0.34683333,0.00000473,0.00010612,0.00000
 655,0.00154773,-0.00271217,-0.00229654,0.00151775,-0.00057717,-0.00023
 169,0.00267375,0.00370311,0.00670787,-0.00024670,-0.00063279,0.0001390
 7,-0.00009850,0.00027117,0.00005824,0.00111240,0.00061966,-0.00054534,
 0.03256628,-0.01788326,0.01822706,-0.04184320,0.00980542,-0.00000843,-
 0.00000776,0.00005507,0.00515153,-0.00360138,-0.00396227,0.00069102,-0
 .00048831,0.00035407,-0.00400420,0.00473845,0.00919749,0.00004433,0.00
 038001,-0.00044108,0.00031661,-0.00004720,0.00000651,-0.00020177,-0.00
 078581,0.00077614,-0.17025247,0.01985968,-0.19682456,0.21587226,-0.024
 87319,0.21861716,-0.00012419,-0.00002794,0.00005262,-0.00476475,0.0038
 2927,-0.00109298,-0.00020672,-0.00000686,0.00018593,0.00674973,-0.0067
 9237,0.00946301,-0.00016052,-0.00023995,-0.00023954,0.00010032,0.00005
 321,0.00001315,0.00035002,0.00028898,0.00039061,-0.09494507,0.00280509
 ,0.15083421,0.00777095,0.00279088,-0.04764192,0.08519635,-0.00000541,0
 .00011884,0.00003673,0.00268438,-0.00357097,0.00129224,0.00064512,0.00
 009817,-0.00083801,-0.00144908,0.00505208,-0.00802094,-0.00037085,-0.0
 0057707,0.00005897,-0.00001985,0.00014378,0.00003721,0.00105894,0.0007
 8447,-0.00025881,0.00294848,-0.01758846,0.03014506,-0.00267972,0.00727
 950,0.00482930,-0.00279200,0.00823478,0.00006571,0.00006451,0.00008047
 ,-0.00397795,0.00122577,0.00039918,0.00052374,-0.00024939,0.00002094,0
 .00483481,-0.00024451,-0.00173220,-0.00055916,-0.00025121,0.00005552,0
 .00010938,0.00000875,-0.00001687,0.00088467,0.00045345,-0.00015136,0.0
 9194181,0.02359118,-0.45251501,0.01824489,0.00278255,-0.02783615,-0.11
 207348,-0.02732977,0.48163085,-0.10528579,-0.07522037,-0.02085714,-0.0
 0114948,-0.00027390,0.00051056,0.00017996,0.00013332,-0.00000388,0.000
 71986,-0.00034649,-0.00025703,-0.00206749,-0.00014479,-0.00009613,0.00
 037819,-0.00012219,0.00031815,0.00140016,0.00074279,-0.00065595,-0.000
 40973,0.00017013,0.00012092,0.00008324,-0.00001150,0.00001345,0.000090
 91,0.00000078,-0.00004121,0.33671363,-0.06410608,-0.07210280,-0.014652
 97,-0.00091310,-0.00015468,0.00044061,0.00014788,0.00006652,-0.0000055
 5,0.00056991,-0.00034393,-0.00023619,-0.00181502,0.00023008,0.00002749
 ,0.00026022,-0.00025428,0.00023226,0.00108395,0.00052418,-0.00058095,-
 0.00028563,0.00023131,0.00011919,0.00004456,-0.00004506,0.00000362,0.0
 0003477,-0.00004731,-0.00003949,0.10264132,0.12210512,-0.03168951,-0.0
 2677388,-0.04392609,-0.00004114,-0.00001038,0.00011524,-0.00000066,-0.
 00000045,-0.00003340,0.00000524,-0.00003474,-0.00006054,-0.00008627,0.
 00008848,0.00001629,-0.00002755,0.00000263,-0.00002985,0.00008380,0.00
 002866,-0.00012864,0.00002109,0.00003483,0.00005413,-0.00000577,-0.000
 00382,-0.00002396,-0.00003634,-0.00001961,-0.00002721,0.09770889,-0.06
 219661,0.58367556,-0.01250440,-0.00812741,-0.00327314,0.00084348,0.000
 19608,-0.00032897,-0.00013545,-0.00009838,-0.00001311,-0.00053702,0.00
 024282,0.00016666,0.00150771,0.00018159,0.00014335,-0.00027649,0.00004
 187,-0.00023638,-0.00101021,-0.00054016,0.00042465,0.00031827,-0.00010
 992,-0.00006977,-0.00006794,0.00000523,-0.00001871,-0.00008405,-0.0000
 0827,0.00002020,-0.09759668,-0.02299856,0.04584239,0.09504032,-0.01185
 181,-0.00613543,0.00122928,0.00037551,0.00004747,-0.00013173,-0.000069
 60,-0.00002519,-0.00001026,-0.00025326,0.00013615,0.00007974,0.0006532
 4,-0.00001972,0.00006977,-0.00011251,0.00007185,-0.00009467,-0.0004219
 7,-0.00019436,0.00016968,0.00013903,-0.00008600,-0.00003179,-0.0000245
 2,0.00001793,-0.00001006,-0.00003217,0.00001276,0.00000781,-0.00936559
 ,-0.03715638,0.00779282,0.00888499,0.07029438,0.00166054,0.00298289,0.
 01403328,-0.00077349,-0.00015795,0.00026807,0.00013064,0.00007964,0.00
 002796,0.00049369,-0.00023165,-0.00013821,-0.00144000,-0.00006289,-0.0
 0016571,0.00023722,-0.00010498,0.00024232,0.00090518,0.00046373,-0.000
 35529,-0.00028944,0.00011883,0.00004734,0.00005720,-0.00001509,0.00002
 774,0.00007919,0.00000129,-0.00001011,0.00660683,0.00849497,-0.0920689
 6,-0.00525857,-0.00846658,0.09554459,-0.00600238,-0.00057267,-0.014132
 44,0.00007678,0.00003514,-0.00000621,-0.00000991,-0.00002033,-0.000006
 08,-0.00005508,0.00000478,0.00000010,0.00010795,0.00009196,0.00004274,
 -0.00002906,-0.00001682,-0.00002911,-0.00009072,-0.00006781,0.00001084
 ,0.00004408,0.00001430,0.00000686,-0.00001165,-0.00000726,-0.00000635,
 -0.00002312,-0.00001412,-0.00000410,-0.10333480,0.00424413,-0.15747708
 ,0.01893202,-0.00029171,0.02004453,0.09717042,-0.00979504,-0.00129338,
 -0.01356340,0.00004257,-0.00003573,0.00000014,-0.00001532,0.00001455,-
 0.00000736,-0.00004426,0.00004385,0.00001725,0.00003709,-0.00006601,-0
 .00003351,-0.00001908,0.00003825,0.00000505,-0.00001641,0.00002172,0.0
 0000254,0.00001324,-0.00004507,-0.00000897,0.00000205,0.00001502,-0.00
 000016,0.00000214,0.00001900,0.00000173,0.00365937,-0.02392265,0.06291
 364,0.00903910,0.00414594,0.00344132,-0.00022020,0.02200506,-0.0023444
 6,0.00191426,-0.00019523,0.00025233,0.00006121,-0.00017214,-0.00003488
 ,-0.00002387,0.00002292,-0.00014828,0.00008770,0.00008746,0.00049869,0
 .00001707,-0.00005490,-0.00009997,0.00002191,-0.00004095,-0.00032485,-
 0.00016828,0.00020521,0.00007187,-0.00005236,-0.00005749,-0.00001413,0
 .00000424,0.00001195,0.00000231,0.00001062,0.00002569,-0.13076475,0.04
 924403,-0.42545681,-0.01785503,0.00387652,-0.01578985,0.14638099,-0.05
 579906,0.44151246,0.00405134,0.00434391,0.00294441,-0.00047000,-0.0001
 2303,0.00020937,0.00007221,0.00006046,-0.00000390,0.00029669,-0.000130
 11,-0.00010308,-0.00079544,-0.00014600,-0.00003466,0.00016645,0.000006
 09,0.00011044,0.00057558,0.00031860,-0.00026169,-0.00017655,0.00005161
 ,0.00004990,0.00004044,0.00000321,0.00000364,0.00004430,0.00000806,-0.
 00001675,-0.03320603,-0.02085201,0.04000288,-0.00944251,0.01677862,-0.
 01158641,-0.00627434,-0.00233339,0.00269970,0.52111961,0.00303333,0.00
 135709,0.00073207,-0.00023487,-0.00001130,0.00009050,0.00004777,0.0000
 0643,0.00000243,0.00016668,-0.00010073,-0.00005962,-0.00039222,0.00005
 595,-0.00001174,0.00007543,-0.00006916,0.00004362,0.00025609,0.0001046
 4,-0.00011228,-0.00008561,0.00007200,0.00002633,0.00001347,-0.00001833
 ,0.00000423,0.00001566,-0.00001621,-0.00000753,-0.02044543,0.00619737,
 0.01551415,0.01424964,-0.03782145,0.00119896,-0.00138587,-0.00103245,-
 0.00044728,-0.11172826,0.63100941,-0.00417934,-0.00394257,-0.00610893,
 0.00037328,0.00007558,-0.00009135,-0.00006488,-0.00003831,-0.00003216,
 -0.00023620,0.00010314,0.00004408,0.00071899,0.00003191,0.00014880,-0.
 00010187,0.00005592,-0.00015613,-0.00042842,-0.00022005,0.00013552,0.0
 0014377,-0.00004856,-0.00000019,-0.00002731,0.00000677,-0.00002573,-0.
 00004783,-0.00000657,-0.00000658,0.04442836,0.01845418,-0.02352759,-0.
 02356820,-0.00730170,-0.01016485,0.00186235,0.00047194,0.00079554,-0.0
 5318053,-0.09790199,0.08937223,-0.00078227,-0.00016375,0.00012560,0.00
 010732,0.00002830,-0.00005391,-0.00001727,-0.00001410,0.00000433,-0.00
 006922,0.00003034,0.00002742,0.00016465,0.00003550,-0.00000397,-0.0000
 3922,-0.00000428,-0.00001632,-0.00013193,-0.00007315,0.00006487,0.0000
 4111,-0.00001051,-0.00001489,-0.00001008,-0.00000211,0.00000131,-0.000
 00968,-0.00000254,0.00000527,0.00149173,-0.00098148,0.00134914,-0.0052
 9567,0.00473255,-0.00448026,-0.00078849,0.00002478,0.00061401,-0.41066
 667,0.19216423,0.00912401,0.41388658,-0.00010737,0.00085127,0.00054417
 ,0.00001200,-0.00002473,-0.00000225,-0.00000886,0.00001183,0.00000026,
 -0.00001910,0.00002276,0.00001038,-0.00000353,-0.00005322,-0.00001420,
 -0.00000216,0.00002856,0.00000963,0.00000359,0.00002125,0.00000033,0.0
 0000453,-0.00002483,-0.00000560,0.00000127,0.00000944,0.00000058,0.000
 00243,0.00001039,0.00000174,-0.00413122,-0.00362497,0.00454838,0.00246
 428,0.00849752,-0.00751098,-0.00050683,0.00034002,0.00056917,0.1338843
 7,-0.13184993,0.01376869,-0.18331141,0.14737265,0.00050934,0.00030319,
 0.00034280,-0.00001373,-0.00000405,-0.00002010,0.00000353,0.00000252,0
 .00001302,0.00000711,0.00000275,0.00001257,-0.00003896,-0.00001133,-0.
 00004318,-0.00000151,0.00000222,0.00002622,0.00001152,0.00000806,0.000
 01698,-0.00000856,-0.00000528,-0.00001366,0.00000156,0.00000103,0.0000
 0824,0.00000821,0.00000435,0.00000736,0.00205584,0.00310196,-0.0046121
 3,0.00539189,-0.00831099,0.00736262,0.00159043,0.00024516,-0.00102077,
 0.00595223,0.01403229,-0.02096392,-0.00744020,-0.01303020,0.01133499,0
 .00039975,-0.00042184,0.00052500,0.00005316,0.00003621,-0.00004096,-0.
 00000361,-0.00001688,0.00000802,-0.00002922,0.00000054,0.00001573,0.00
 005263,0.00009419,-0.00001903,-0.00002692,-0.00004788,-0.00000250,-0.0
 0007814,-0.00006167,0.00004651,0.00002327,0.00001523,-0.00001242,-0.00
 000949,-0.00001055,0.00000457,-0.00000698,-0.00000957,0.00000580,-0.00
 534646,0.00076012,0.00409493,0.00873353,-0.00976319,-0.00564554,-0.000
 13553,-0.00015066,0.00015396,-0.06496421,-0.07565278,0.02481498,0.0020
 5861,0.05179870,-0.00798315,0.05932276,-0.00067555,-0.00032120,-0.0001
 5133,0.00010240,0.00000205,-0.00004050,-0.00002063,-0.00000152,-0.0000
 0030,-0.00007421,0.00004707,0.00002777,0.00016487,-0.00002495,-0.00000
 360,-0.00003695,0.00002907,-0.00001321,-0.00011013,-0.00004286,0.00005
 053,0.00003697,-0.00003587,-0.00001280,-0.00000538,0.00000993,-0.00000
 113,-0.00000596,0.00000930,0.00000344,0.00403251,0.00087480,-0.0019768
 4,-0.00460298,-0.00265726,0.00152795,-0.00036261,0.00024392,0.00015402
 ,-0.01942404,-0.46755676,0.07566984,-0.01251511,-0.02146803,0.00372425
 ,0.03344382,0.49077772,0.00056646,0.00012141,0.00049095,-0.00002892,-0
 .00000082,-0.00001862,0.00000790,0.00000059,0.00001427,0.00001910,-0.0
 0000518,0.00001102,-0.00007289,0.00000826,-0.00005431,0.00000129,-0.00
 001661,0.00003495,0.00002622,0.00001052,0.00001451,-0.00001470,0.00000
 092,-0.00001544,0.00000182,-0.00000176,0.00001072,0.00001014,0.0000035
 7,0.00000846,0.00265467,-0.00170627,-0.00304983,-0.00215530,0.01150595
 ,0.00331455,0.00051864,0.00091126,-0.00022271,0.01373524,0.06700989,-0
 .03026966,0.00068639,0.00120999,0.00756195,-0.01589431,-0.07901949,0.0
 2222309,-0.15975116,-0.08600218,-0.04029191,-0.00283349,-0.00116970,0.
 00195340,0.00022135,0.00037136,-0.00008380,0.00147591,-0.00085352,-0.0
 0073982,-0.01337213,0.00130344,-0.00131900,-0.00059451,-0.00062172,0.0
 0097503,0.00372482,0.00264826,-0.00267888,-0.00073324,0.00049897,0.000
 36235,0.00012708,-0.00004906,-0.00000318,0.00004452,-0.00005143,-0.000
 13239,0.00797697,-0.00046509,0.00015905,0.00288051,0.00138220,-0.00159
 791,0.00081007,0.00005231,0.00150089,-0.00090770,-0.00054140,0.0007978
 9,0.00023061,0.00003757,-0.00005896,-0.00004785,0.00022759,-0.00013695
 ,0.22251798,-0.11483864,-0.09627430,-0.03580799,-0.00099219,0.00035296
 ,0.00024236,0.00039453,-0.00006275,0.00002187,0.00073998,-0.00055316,-
 0.00033138,-0.00038358,0.00505843,0.00030502,-0.00027316,-0.00114738,0
 .00009010,0.00113296,-0.00012546,-0.00028497,-0.00031491,0.00039518,0.
 00015586,0.00002059,-0.00008634,0.00001247,0.00000290,-0.00009718,-0.0
 0004303,-0.00215775,0.00551340,0.00024110,0.00202437,0.00124371,-0.002
 32582,-0.00057672,-0.00038780,0.00071819,-0.00115639,-0.00046583,0.001
 15392,0.00015934,-0.00016688,-0.00009622,0.00005924,0.00016848,-0.0000
 6974,-0.03576840,0.51828761,-0.04745725,-0.03213676,-0.02620450,-0.000
 48507,-0.00053681,0.00098215,-0.00005171,0.00013114,-0.00022156,0.0001
 0103,-0.00013879,-0.00028245,-0.00304659,0.00058233,0.00389892,0.00168
 082,-0.00063047,0.00005716,0.00089071,0.00082938,-0.00152591,-0.000032
 95,0.00007429,0.00020466,0.00003054,0.00000679,-0.00007487,-0.00008521
 ,-0.00001693,-0.00008083,-0.00167552,-0.00117043,0.00782312,0.00142302
 ,-0.00014066,-0.00254300,0.00107981,0.00144443,0.00038400,-0.00071115,
 -0.00016609,0.00123342,0.00002078,-0.00013006,-0.00013193,-0.00007530,
 0.00008202,-0.00016861,0.01779591,0.12260255,0.04485814,-0.00119253,-0
 .00511236,-0.00158378,0.00370339,0.00062594,-0.00279327,-0.00055007,-0
 .00058189,0.00058634,-0.00181767,0.00092418,0.00103881,-0.42363759,0.0
 5933370,-0.09277605,-0.00379343,0.00022794,0.00896194,-0.00707938,-0.0
 0028859,0.00201929,0.00091937,-0.00053877,-0.00051507,-0.00016742,0.00
 002461,0.00004608,-0.00002474,0.00003668,0.00016353,0.00237179,0.00245
 792,0.00018779,-0.00175177,-0.00079239,0.00180682,-0.00005179,-0.00002
 625,-0.00060752,0.00089596,0.00048026,-0.00092346,-0.00017522,-0.00000
 033,0.00006347,-0.00001130,-0.00019319,0.00011466,0.00239052,0.0037245
 3,0.00127834,0.42659935,-0.00256974,0.00149294,0.00012070,-0.00257930,
 -0.00408259,0.00375560,-0.00105206,0.00023975,0.00008178,-0.00028906,0
 .00036094,0.00035245,0.05030742,-0.03313861,0.02775557,0.01476368,0.00
 504447,0.00263878,-0.00165646,0.00630057,-0.00598931,0.00000090,-0.000
 31547,-0.00008185,0.00004191,0.00008656,-0.00000830,0.00007675,0.00010
 029,0.00000151,-0.00023061,-0.00043985,-0.00015956,0.00009003,0.000071
 18,-0.00017857,-0.00006665,0.00000121,0.00005487,-0.00002586,-0.000090
 59,0.00008484,0.00000335,0.00003141,0.00000520,-0.00005068,0.00003624,
 -0.00001335,-0.00206577,-0.01023746,-0.00091168,-0.05969758,0.03454133
 ,-0.00118901,-0.00043564,-0.00006157,0.00387561,0.00404281,-0.00480098
 ,0.00021979,-0.00020090,0.00009380,-0.00065499,0.00060641,0.00078356,-
 0.03390692,0.02137531,-0.06945504,-0.05248368,0.01022908,-0.01191568,-
 0.00155770,-0.00719796,0.00933259,0.00027723,-0.00039809,-0.00043141,-
 0.00007054,0.00003744,0.00008564,0.00014342,0.00008183,0.00012193,0.00
 035126,0.00016265,0.00012362,-0.00032604,-0.00017164,0.00034098,-0.000
 05328,0.00003015,0.00000044,0.00013697,0.00007223,-0.00021908,-0.00002
 211,0.00000872,0.00003977,0.00000729,-0.00002295,0.00005260,0.00101785
 ,-0.00033584,-0.00741638,0.08275533,-0.02752656,0.08166700,-0.00736225
 ,-0.02783630,-0.00810627,0.00003996,-0.00040059,0.00013666,-0.00021276
 ,0.00006944,0.00001036,-0.00016355,0.00014480,0.00008226,-0.00258110,-
 0.00204988,-0.00074554,-0.00009882,0.00053118,0.00012492,0.00006261,0.
 00063926,-0.00027531,0.00005871,-0.00010112,-0.00002391,0.00000277,0.0
 0002230,-0.00000776,0.00000274,0.00002039,0.00000523,-0.00301000,0.000
 17218,-0.00009088,0.00044636,0.00003259,-0.00095024,-0.00033445,-0.000
 25202,0.00001911,-0.00035911,-0.00003610,0.00049443,0.00000511,-0.0001
 1791,-0.00005006,0.00001599,0.00001858,-0.00003946,-0.06416026,0.14820
 329,0.02931979,0.00337253,0.00499974,0.00147951,0.07427552,0.00366104,
 -0.01487587,-0.00370030,0.00036753,-0.00009154,-0.00013575,-0.00014493
 ,0.00003876,-0.00000973,-0.00026717,0.00018952,0.00012051,-0.00016917,
 -0.00006328,0.00006964,0.00014611,0.00009863,-0.00022304,-0.00029512,-
 0.00003196,0.00017711,0.00012199,-0.00013749,-0.00006047,-0.00001425,0
 .00003129,-0.00000503,-0.00000480,0.00003382,0.00002247,0.00106963,0.0
 0234914,0.00001120,-0.00093433,-0.00044308,0.00074495,-0.00028071,-0.0
 0010547,-0.00024297,0.00046416,0.00022984,-0.00041696,-0.00009996,0.00
 001546,0.00002510,-0.00002236,-0.00009015,0.00005087,0.12106657,-0.421
 41523,-0.08977424,-0.00060443,-0.00000231,-0.00035705,-0.12405982,0.43
 426992,-0.00026942,-0.00775184,-0.00005659,-0.00009015,0.00020003,-0.0
 0030316,0.00007853,-0.00004634,0.00015588,0.00009092,-0.00005010,0.000
 05602,-0.00015431,-0.00025821,-0.00081869,-0.00033129,0.00046390,0.000
 16312,-0.00009090,-0.00022435,0.00045482,-0.00004509,0.00003722,-0.000
 05727,-0.00000652,-0.00001018,0.00003788,0.00003449,-0.00001055,0.0000
 2591,-0.00041733,0.00030750,0.00113706,-0.00030895,-0.00006150,0.00002
 652,0.00017736,-0.00007217,-0.00003483,0.00005339,-0.00002015,-0.00016
 344,0.00000853,0.00002127,0.00007915,-0.00000359,0.00000235,0.00006210
 ,0.02248043,-0.08624845,-0.02079152,0.00017674,0.00001789,0.00165822,-
 0.02138285,0.09370369,0.01836882\\0.00551058,0.01457855,0.00195605,-0.
 01174971,0.00704236,-0.02226269,0.00219886,-0.01002900,0.00529181,0.01
 027159,0.00223470,0.00812094,0.00419982,-0.01011982,-0.00860888,-0.006
 89759,0.00689437,-0.00545162,0.00377622,0.00369336,0.01232180,-0.01012
 985,-0.01172618,0.00037391,-0.00187886,0.00648593,-0.00979905,0.006009
 55,0.00405317,0.01004718,0.01394840,-0.00870720,-0.00185687,-0.0098373
 1,0.00310636,-0.00263969,-0.00002722,0.00614687,0.00892955,0.00979246,
 0.00510402,0.01126342,0.00343213,-0.01006647,-0.00487919,-0.00718059,0
 .00729431,-0.00627938,-0.01335177,-0.00385139,-0.00294709,0.00612774,0
 .00182386,0.01035254,-0.00421443,-0.01395781,-0.00393274\\\@


 NEVER LISTEN TO CRITICISM
 OR YOU'LL BE DOIN' EVERYBODY ELSE'S THING BUT BUT YOUR OWN.

                                               -- ANDY CAPP
 Job cpu time:       0 days  0 hours 46 minutes 39.9 seconds.
 Elapsed time:       0 days  0 hours  1 minutes 41.1 seconds.
 File lengths (MBytes):  RWF=   2793 Int=      0 D2E=      0 Chk=      3 Scr=      1
 Normal termination of Gaussian 16 at Wed May 11 21:42:03 2022.
