 Entering Gaussian System, Link 0=g16
 Initial command:
 /cm/shared/apps/gaussian/intel/EM64T/SSE4_2-enabled/binary//g16/l1.exe "/scratch/florez/25750/Gau-8217.inp" -scrdir="/scratch/florez/25750/"
 Entering Link 1 = /cm/shared/apps/gaussian/intel/EM64T/SSE4_2-enabled/binary//g16/l1.exe PID=      8219.
  
 Copyright (c) 1988,1990,1992,1993,1995,1998,2003,2009,2016,
            Gaussian, Inc.  All Rights Reserved.
  
 This is part of the Gaussian(R) 16 program.  It is based on
 the Gaussian(R) 09 system (copyright 2009, Gaussian, Inc.),
 the Gaussian(R) 03 system (copyright 2003, Gaussian, Inc.),
 the Gaussian(R) 98 system (copyright 1998, Gaussian, Inc.),
 the Gaussian(R) 94 system (copyright 1995, Gaussian, Inc.),
 the Gaussian 92(TM) system (copyright 1992, Gaussian, Inc.),
 the Gaussian 90(TM) system (copyright 1990, Gaussian, Inc.),
 the Gaussian 88(TM) system (copyright 1988, Gaussian, Inc.),
 the Gaussian 86(TM) system (copyright 1986, Carnegie Mellon
 University), and the Gaussian 82(TM) system (copyright 1983,
 Carnegie Mellon University). Gaussian is a federally registered
 trademark of Gaussian, Inc.
  
 This software contains proprietary and confidential information,
 including trade secrets, belonging to Gaussian, Inc.
  
 This software is provided under written license and may be
 used, copied, transmitted, or stored only in accord with that
 written license.
  
 The following legend is applicable only to US Government
 contracts under FAR:
  
                    RESTRICTED RIGHTS LEGEND
  
 Use, reproduction and disclosure by the US Government is
 subject to restrictions as set forth in subparagraphs (a)
 and (c) of the Commercial Computer Software - Restricted
 Rights clause in FAR 52.227-19.
  
 Gaussian, Inc.
 340 Quinnipiac St., Bldg. 40, Wallingford CT 06492
  
  
 ---------------------------------------------------------------
 Warning -- This program may not be used in any manner that
 competes with the business of Gaussian, Inc. or will provide
 assistance to any competitor of Gaussian, Inc.  The licensee
 of this program is prohibited from giving any competitor of
 Gaussian, Inc. access to this program.  By using this program,
 the user acknowledges that Gaussian, Inc. is engaged in the
 business of creating and licensing software in the field of
 computational chemistry and represents and warrants to the
 licensee that it is not a competitor of Gaussian, Inc. and that
 it will not use this program in any manner prohibited above.
 ---------------------------------------------------------------
  

 Cite this work as:
 Gaussian 16, Revision A.03,
 M. J. Frisch, G. W. Trucks, H. B. Schlegel, G. E. Scuseria, 
 M. A. Robb, J. R. Cheeseman, G. Scalmani, V. Barone, 
 G. A. Petersson, H. Nakatsuji, X. Li, M. Caricato, A. V. Marenich, 
 J. Bloino, B. G. Janesko, R. Gomperts, B. Mennucci, H. P. Hratchian, 
 J. V. Ortiz, A. F. Izmaylov, J. L. Sonnenberg, D. Williams-Young, 
 F. Ding, F. Lipparini, F. Egidi, J. Goings, B. Peng, A. Petrone, 
 T. Henderson, D. Ranasinghe, V. G. Zakrzewski, J. Gao, N. Rega, 
 G. Zheng, W. Liang, M. Hada, M. Ehara, K. Toyota, R. Fukuda, 
 J. Hasegawa, M. Ishida, T. Nakajima, Y. Honda, O. Kitao, H. Nakai, 
 T. Vreven, K. Throssell, J. A. Montgomery, Jr., J. E. Peralta, 
 F. Ogliaro, M. J. Bearpark, J. J. Heyd, E. N. Brothers, K. N. Kudin, 
 V. N. Staroverov, T. A. Keith, R. Kobayashi, J. Normand, 
 K. Raghavachari, A. P. Rendell, J. C. Burant, S. S. Iyengar, 
 J. Tomasi, M. Cossi, J. M. Millam, M. Klene, C. Adamo, R. Cammi, 
 J. W. Ochterski, R. L. Martin, K. Morokuma, O. Farkas, 
 J. B. Foresman, and D. J. Fox, Gaussian, Inc., Wallingford CT, 2016.
 
 ******************************************
 Gaussian 16:  ES64L-G16RevA.03 25-Dec-2016
                11-May-2022 
 ******************************************
 %chk=w6s20.chk
 %nproc=28
 Will use up to   28 processors via shared memory.
 %mem=500gb
 ------------------------
 #p MP2(full) SDDAll freq
 ------------------------
 1/10=4,30=1,38=1/1,3;
 2/12=2,17=6,18=5,40=1/2;
 3/5=17,6=6,11=9,25=1,30=1,71=2,140=1/1,2,3;
 4//1;
 5/5=2,38=5,98=1/2;
 8/6=3,8=1,10=90,19=11/1;
 9/15=3,16=-3/6;
 11/6=1,8=1,15=11,17=11,24=-1,27=1,28=-2,29=300,32=6,42=3/1,2,10;
 10/6=2,21=1/2;
 8/6=4,8=1,10=90,19=11/11,4;
 10/5=1,20=4/2;
 11/12=2,14=11,16=1,28=-2,42=3/2,10,12;
 6/7=2,8=2,9=2,10=2/1;
 7/8=1,10=1,12=2,25=1,44=2/1,2,3,16;
 1/10=4,30=1/3;
 99//99;
 Leave Link    1 at Wed May 11 22:13:12 2022, MaxMem= 67108864000 cpu:               1.7 elap:               0.1
 (Enter /cm/shared/apps/gaussian/intel/EM64T/SSE4_2-enabled/binary//g16/l101.exe)
 ----------------------------------------------------------------------
 file 'w6s20.log' Now we use Def2-QZVPPD, but it was opt at: ---'ZORA-S
 R+SO PBE QZ4P'---
 ----------------------------------------------------------------------
 Symbolic Z-matrix:
 Charge =  2 Multiplicity = 1
 Hg(Fragment=1)        0.36014  -0.11419  -0.60272 
 H(Fragment=2)        -3.77256   2.43292   0.57844 
 O(Fragment=2)        -2.71969   2.3475    0.92283 
 H(Fragment=2)        -2.3824    3.18417   1.29146 
 H(Fragment=2)        -0.98536   1.71081  -1.59267 
 O(Fragment=2)        -0.95728   1.36769  -0.68055 
 H(Fragment=2)        -2.04179   1.95059   0.25661 
 H(Fragment=2)         0.82447  -4.582    -0.47827 
 O(Fragment=2)         0.78153  -3.85204   0.16385 
 H(Fragment=2)         0.92375  -4.25084   1.0396 
 H(Fragment=2)         2.69275  -1.38434  -0.30102 
 O(Fragment=2)         1.69304  -1.61543  -0.53607 
 H(Fragment=2)         1.36209  -2.55233  -0.1997 
 H(Fragment=2)        -5.71501   2.07276   0.80559 
 O(Fragment=2)        -5.05389   2.42338   0.18212 
 H(Fragment=2)        -5.44196   3.21136  -0.23838 
 H(Fragment=2)         4.53752  -1.10018   0.75096 
 O(Fragment=2)         4.07593  -0.9694   -0.09529 
 H(Fragment=2)         4.72832  -1.14731  -0.79459 
 
 ITRead=  0  0  0  0  0  0  0  0  0  0  0  0  0  0  0  0  0  0  0
 MicOpt= -1 -1 -1 -1 -1 -1 -1 -1 -1 -1 -1 -1 -1 -1 -1 -1 -1 -1 -1
 NAtoms=     19 NQM=       19 NQMF=       0 NMMI=      0 NMMIF=      0
                NMic=       0 NMicF=      0.
                    Isotopes and Nuclear Properties:
 (Nuclear quadrupole moments (NQMom) in fm**2, nuclear magnetic moments (NMagM)
  in nuclear magnetons)

  Atom         1           2           3           4           5           6           7           8           9          10
 IAtWgt=         202           1          16           1           1          16           1           1          16           1
 AtmWgt= 201.9706000   1.0078250  15.9949146   1.0078250   1.0078250  15.9949146   1.0078250   1.0078250  15.9949146   1.0078250
 NucSpn=           0           1           0           1           1           0           1           1           0           1
 AtZEff=  -0.0000000  -0.0000000  -0.0000000  -0.0000000  -0.0000000  -0.0000000  -0.0000000  -0.0000000  -0.0000000  -0.0000000
 NQMom=    0.0000000   0.0000000   0.0000000   0.0000000   0.0000000   0.0000000   0.0000000   0.0000000   0.0000000   0.0000000
 NMagM=    0.0000000   2.7928460   0.0000000   2.7928460   2.7928460   0.0000000   2.7928460   2.7928460   0.0000000   2.7928460
 AtZNuc=  80.0000000   1.0000000   8.0000000   1.0000000   1.0000000   8.0000000   1.0000000   1.0000000   8.0000000   1.0000000

  Atom        11          12          13          14          15          16          17          18          19
 IAtWgt=           1          16           1           1          16           1           1          16           1
 AtmWgt=   1.0078250  15.9949146   1.0078250   1.0078250  15.9949146   1.0078250   1.0078250  15.9949146   1.0078250
 NucSpn=           1           0           1           1           0           1           1           0           1
 AtZEff=  -0.0000000  -0.0000000  -0.0000000  -0.0000000  -0.0000000  -0.0000000  -0.0000000  -0.0000000  -0.0000000
 NQMom=    0.0000000   0.0000000   0.0000000   0.0000000   0.0000000   0.0000000   0.0000000   0.0000000   0.0000000
 NMagM=    2.7928460   0.0000000   2.7928460   2.7928460   0.0000000   2.7928460   2.7928460   0.0000000   2.7928460
 AtZNuc=   1.0000000   8.0000000   1.0000000   1.0000000   8.0000000   1.0000000   1.0000000   8.0000000   1.0000000
 Leave Link  101 at Wed May 11 22:13:12 2022, MaxMem= 67108864000 cpu:               2.8 elap:               0.1
 (Enter /cm/shared/apps/gaussian/intel/EM64T/SSE4_2-enabled/binary//g16/l103.exe)

 GradGradGradGradGradGradGradGradGradGradGradGradGradGradGradGradGradGrad
 Berny optimization.
 Initialization pass.
 Trust Radius=3.00D-01 FncErr=1.00D-07 GrdErr=1.00D-07 EigMax=2.50D+02 EigMin=1.00D-04
 Number of steps in this run=      2 maximum allowed number of steps=      2.
 GradGradGradGradGradGradGradGradGradGradGradGradGradGradGradGradGradGrad

 Leave Link  103 at Wed May 11 22:13:12 2022, MaxMem= 67108864000 cpu:               1.1 elap:               0.1
 (Enter /cm/shared/apps/gaussian/intel/EM64T/SSE4_2-enabled/binary//g16/l202.exe)
                          Input orientation:                          
 ---------------------------------------------------------------------
 Center     Atomic      Atomic             Coordinates (Angstroms)
 Number     Number       Type             X           Y           Z
 ---------------------------------------------------------------------
      1         80           0        0.360141   -0.114185   -0.602718
      2          1           0       -3.772555    2.432923    0.578442
      3          8           0       -2.719690    2.347500    0.922833
      4          1           0       -2.382397    3.184171    1.291458
      5          1           0       -0.985357    1.710811   -1.592665
      6          8           0       -0.957281    1.367689   -0.680548
      7          1           0       -2.041789    1.950592    0.256614
      8          1           0        0.824467   -4.582003   -0.478273
      9          8           0        0.781526   -3.852038    0.163848
     10          1           0        0.923745   -4.250839    1.039603
     11          1           0        2.692749   -1.384343   -0.301017
     12          8           0        1.693037   -1.615429   -0.536073
     13          1           0        1.362085   -2.552328   -0.199700
     14          1           0       -5.715009    2.072761    0.805593
     15          8           0       -5.053892    2.423375    0.182120
     16          1           0       -5.441958    3.211361   -0.238384
     17          1           0        4.537519   -1.100182    0.750959
     18          8           0        4.075934   -0.969401   -0.095292
     19          1           0        4.728325   -1.147311   -0.794591
 ---------------------------------------------------------------------
                    Distance matrix (angstroms):
                    1          2          3          4          5
     1  Hg   0.000000
     2  H    4.996206   0.000000
     3  O    4.227595   1.111048   0.000000
     4  H    4.689197   1.733581   0.974510   0.000000
     5  H    2.474059   3.606054   3.121060   3.527134   0.000000
     6  O    1.984341   3.262751   2.576227   3.036342   0.974925
     7  H    3.281924   1.825313   1.030016   1.645793   2.143216
     8  H    4.493605   8.453310   7.908360   8.586582   6.642051
     9  O    3.838845   7.772533   7.160226   7.796804   6.095285
    10  H    4.486287   8.181722   7.538324   8.140846   6.790786
    11  H    2.673085   7.559439   6.687223   7.011733   4.977630
    12  O    2.008678   6.892314   6.107812   6.556309   4.399324
    13  H    2.666619   7.198803   6.475282   7.010857   5.062133
    14  H    6.608594   1.988578   3.010177   3.546491   5.315285
    15  O    6.030500   1.341263   2.450084   2.991041   4.495619
    16  H    6.697488   2.014963   3.083087   3.420829   4.893569
    17  H    4.500569   9.031607   8.036363   8.156780   6.625437
    18  O    3.846556   8.580705   7.630132   7.802902   5.919656
    19  H    4.492794   9.325677   8.404533   8.583455   6.438319
                    6          7          8          9         10
     6  O    0.000000
     7  H    1.547322   0.000000
     8  H    6.214047   7.171491   0.000000
     9  O    5.566148   6.453699   0.973146   0.000000
    10  H    6.169687   6.918469   1.556751   0.972736   0.000000
    11  H    4.586986   5.817954   3.707685   3.155692   3.625388
    12  O    3.993000   5.224345   3.091653   2.514590   3.165431
    13  H    4.580088   5.663115   2.118069   1.469171   2.147779
    14  H    5.034056   3.716026   9.418012   8.815897   9.171463
    15  O    4.317510   3.049891   9.168781   8.569320   9.000697
    16  H    4.868980   3.660015  10.003107   9.422587   9.891403
    17  H    6.191319   7.269037   5.236492   4.693069   4.803053
    18  O    5.580123   6.787984   4.875408   4.385188   4.689575
    19  H    6.218066   7.519074   5.209345   4.879690   5.241277
                   11         12         13         14         15
    11  H    0.000000
    12  O    1.052652   0.000000
    13  H    1.773449   1.049026   0.000000
    14  H    9.157868   8.383434   8.513949   0.000000
    15  O    8.645379   7.896125   8.128233   0.974025   0.000000
    16  H    9.343333   8.619436   8.917209   1.568711   0.973828
    17  H    2.142563   3.164334   3.618820  10.732422  10.233973
    18  O    1.458664   2.507955   3.143491  10.292177   9.743798
    19  H    2.107930   3.082035   3.695881  11.045030  10.459232
                   16         17         18         19
    16  H    0.000000
    17  H   10.915959   0.000000
    18  O   10.396611   0.972782   0.000000
    19  H   11.078901   1.557996   0.972772   0.000000
 Stoichiometry    H12HgO6(2+)
 Framework group  C1[X(H12HgO6)]
 Deg. of freedom    51
 Full point group                 C1      NOp   1
 Largest Abelian subgroup         C1      NOp   1
 Largest concise Abelian subgroup C1      NOp   1
                         Standard orientation:                         
 ---------------------------------------------------------------------
 Center     Atomic      Atomic             Coordinates (Angstroms)
 Number     Number       Type             X           Y           Z
 ---------------------------------------------------------------------
      1         80           0       -0.295978   -0.190390   -0.216333
      2          1           0        4.626797    0.169100    0.557700
      3          8           0        3.738339   -0.288093    1.043545
      4          1           0        3.960397   -1.105328    1.525713
      5          1           0        1.767029   -1.098274   -1.236489
      6          8           0        1.617750   -0.694477   -0.361765
      7          1           0        2.907705   -0.435411    0.452549
      8          1           0       -3.189807    3.242588   -0.397718
      9          8           0       -2.695099    2.763389    0.289773
     10          1           0       -2.972341    3.144643    1.140654
     11          1           0       -2.908413   -0.384981    0.315365
     12          8           0       -2.234187    0.319409   -0.081284
     13          1           0       -2.465898    1.321691    0.124133
     14          1           0        6.037520    1.567798    0.468568
     15          8           0        5.645681    0.822170   -0.020539
     16          1           0        6.378348    0.325096   -0.426073
     17          1           0       -4.187138   -1.474805    1.644923
     18          8           0       -3.796365   -1.455772    0.754283
     19          1           0       -4.484887   -1.773916    0.145179
 ---------------------------------------------------------------------
 Rotational constants (GHZ):           1.9030541           0.3449556           0.3091951
 Leave Link  202 at Wed May 11 22:13:12 2022, MaxMem= 67108864000 cpu:               0.3 elap:               0.0
 (Enter /cm/shared/apps/gaussian/intel/EM64T/SSE4_2-enabled/binary//g16/l301.exe)
 Standard basis: SDDAll (6D, 10F)
 Ernie: Thresh=  0.10000D-02 Tol=  0.10000D-05 Strict=F.
 There are   129 symmetry adapted cartesian basis functions of A   symmetry.
 There are   129 symmetry adapted basis functions of A   symmetry.
   129 basis functions,   227 primitive gaussians,   129 cartesian basis functions
    33 alpha electrons       33 beta electrons
       nuclear repulsion energy       309.5211122176 Hartrees.
 IExCor=    0 DFT=F Ex=HF Corr=None ExCW=0 ScaHFX=  1.000000
 ScaDFX=  1.000000  1.000000  1.000000  1.000000 ScalE2=  1.000000  1.000000
 IRadAn=      5 IRanWt=     -1 IRanGd=            0 ICorTp=0 IEmpDi=  4
 NAtoms=   19 NActive=   19 NUniq=   19 SFac= 1.00D+00 NAtFMM=   60 NAOKFM=F Big=F
 Integral buffers will be    131072 words long.
 Raffenetti 1 integral format.
 Two-electron integral symmetry is turned on.
 Leave Link  301 at Wed May 11 22:13:12 2022, MaxMem= 67108864000 cpu:               1.5 elap:               0.1
 (Enter /cm/shared/apps/gaussian/intel/EM64T/SSE4_2-enabled/binary//g16/l302.exe)
 NPDir=0 NMtPBC=     1 NCelOv=     1 NCel=       1 NClECP=     1 NCelD=      1
         NCelK=      1 NCelE2=     1 NClLst=     1 CellRange=     0.0.
 One-electron integrals computed using PRISM.
 One-electron integral symmetry used in STVInt
   1 Symmetry operations used in ECPInt.
 ECPInt:  NShTT=    2346 NPrTT=    7709 LenC2=    2209 LenP2D=    5479.
 LDataN:  DoStor=T MaxTD1= 7 Len=  274
 NBasis=   129 RedAO= T EigKep=  3.83D-04  NBF=   129
 NBsUse=   129 1.00D-06 EigRej= -1.00D+00 NBFU=   129
 Leave Link  302 at Wed May 11 22:13:13 2022, MaxMem= 67108864000 cpu:               6.6 elap:               0.3
 (Enter /cm/shared/apps/gaussian/intel/EM64T/SSE4_2-enabled/binary//g16/l303.exe)
 DipDrv:  MaxL=1.
 Leave Link  303 at Wed May 11 22:13:13 2022, MaxMem= 67108864000 cpu:               1.3 elap:               0.1
 (Enter /cm/shared/apps/gaussian/intel/EM64T/SSE4_2-enabled/binary//g16/l401.exe)
 ExpMin= 2.00D-02 ExpMax= 4.71D+01 ExpMxC= 4.71D+01 IAcc=3 IRadAn=         5 AccDes= 0.00D+00
 Harris functional with IExCor=  205 and IRadAn=       5 diagonalized for initial guess.
 HarFok:  IExCor=  205 AccDes= 0.00D+00 IRadAn=         5 IDoV= 1 UseB2=F ITyADJ=14
 ICtDFT=  3500011 ScaDFX=  1.000000  1.000000  1.000000  1.000000
 Defaulting to unpruned grid for atomic number  80.
 FoFCou: FMM=F IPFlag=           0 FMFlag=      100000 FMFlg1=           0
         NFxFlg=           0 DoJE=T BraDBF=F KetDBF=T FulRan=T
         wScrn=  0.000000 ICntrl=       500 IOpCl=  0 I1Cent=   200000004 NGrid=           0
         NMat0=    1 NMatS0=      1 NMatT0=    0 NMatD0=    1 NMtDS0=    0 NMtDT0=    0
 Petite list used in FoFCou.
 Harris En= -257.168624055854    
 JPrj=0 DoOrth=F DoCkMO=F.
 Leave Link  401 at Wed May 11 22:13:13 2022, MaxMem= 67108864000 cpu:               8.0 elap:               0.3
 (Enter /cm/shared/apps/gaussian/intel/EM64T/SSE4_2-enabled/binary//g16/l502.exe)
 Integral symmetry usage will be decided dynamically.
 Closed shell SCF:
 Using DIIS extrapolation, IDIIS=  1040.
 NGot= 67108864000 LenX= 67108825412 LenY= 67108808330
 Requested convergence on RMS density matrix=1.00D-08 within 128 cycles.
 Requested convergence on MAX density matrix=1.00D-06.
 Requested convergence on             energy=1.00D-06.
 No special actions if energy rises.
 Fock matrices will be formed incrementally for  20 cycles.

 Cycle   1  Pass 0  IDiag  1:
 FoFJK:  IHMeth= 1 ICntrl=       0 DoSepK=F KAlg= 0 I1Cent=           0 FoldK=F
 IRaf= 880000000 NMat=       1 IRICut=       1 DoRegI=T DoRafI=F ISym2E= 0 IDoP0=0 IntGTp=1.
 FoFCou: FMM=F IPFlag=           0 FMFlag=      100000 FMFlg1=           0
         NFxFlg=           0 DoJE=F BraDBF=F KetDBF=F FulRan=T
         wScrn=  0.000000 ICntrl=         0 IOpCl=  0 I1Cent=           0 NGrid=           0
         NMat0=    1 NMatS0=      1 NMatT0=    0 NMatD0=    1 NMtDS0=    0 NMtDT0=    0
 Symmetry not used in FoFCou.
 E= -252.947855570350    
 DIIS: error= 4.18D-02 at cycle   1 NSaved=   1.
 NSaved= 1 IEnMin= 1 EnMin= -252.947855570350     IErMin= 1 ErrMin= 4.18D-02
 ErrMax= 4.18D-02  0.00D+00 EMaxC= 1.00D-01 BMatC= 6.28D-01 BMatP= 6.28D-01
 IDIUse=3 WtCom= 5.82D-01 WtEn= 4.18D-01
 Coeff-Com:  0.100D+01
 Coeff-En:   0.100D+01
 Coeff:      0.100D+01
 Gap=     0.703 Goal=   None    Shift=    0.000
 GapD=    0.703 DampG=2.000 DampE=0.250 DampFc=0.5000 IDamp=-1.
 Damping current iteration by 5.00D-01
 RMSDP=7.97D-03 MaxDP=2.53D-01              OVMax= 2.41D-01

 Cycle   2  Pass 0  IDiag  1:
 RMSU=  3.95D-03    CP:  1.02D+00
 E= -253.215325509576     Delta-E=       -0.267469939227 Rises=F Damp=T
 DIIS: error= 1.11D-02 at cycle   2 NSaved=   2.
 NSaved= 2 IEnMin= 2 EnMin= -253.215325509576     IErMin= 2 ErrMin= 1.11D-02
 ErrMax= 1.11D-02  0.00D+00 EMaxC= 1.00D-01 BMatC= 3.79D-02 BMatP= 6.28D-01
 IDIUse=3 WtCom= 8.89D-01 WtEn= 1.11D-01
 Coeff-Com: -0.228D+00 0.123D+01
 Coeff-En:   0.000D+00 0.100D+01
 Coeff:     -0.203D+00 0.120D+01
 Gap=     0.568 Goal=   None    Shift=    0.000
 RMSDP=2.40D-03 MaxDP=6.36D-02 DE=-2.67D-01 OVMax= 7.93D-02

 Cycle   3  Pass 0  IDiag  1:
 RMSU=  2.15D-03    CP:  1.01D+00  1.27D+00
 E= -253.441580567137     Delta-E=       -0.226255057561 Rises=F Damp=F
 DIIS: error= 3.45D-03 at cycle   3 NSaved=   3.
 NSaved= 3 IEnMin= 3 EnMin= -253.441580567137     IErMin= 3 ErrMin= 3.45D-03
 ErrMax= 3.45D-03  0.00D+00 EMaxC= 1.00D-01 BMatC= 3.25D-03 BMatP= 3.79D-02
 IDIUse=3 WtCom= 9.66D-01 WtEn= 3.45D-02
 Coeff-Com:  0.324D-01-0.807D-01 0.105D+01
 Coeff-En:   0.000D+00 0.000D+00 0.100D+01
 Coeff:      0.313D-01-0.779D-01 0.105D+01
 Gap=     0.556 Goal=   None    Shift=    0.000
 RMSDP=9.14D-04 MaxDP=3.28D-02 DE=-2.26D-01 OVMax= 1.84D-02

 Cycle   4  Pass 0  IDiag  1:
 RMSU=  5.16D-04    CP:  1.00D+00  1.20D+00  1.31D+00
 E= -253.445112672734     Delta-E=       -0.003532105597 Rises=F Damp=F
 DIIS: error= 2.26D-03 at cycle   4 NSaved=   4.
 NSaved= 4 IEnMin= 4 EnMin= -253.445112672734     IErMin= 4 ErrMin= 2.26D-03
 ErrMax= 2.26D-03  0.00D+00 EMaxC= 1.00D-01 BMatC= 6.47D-04 BMatP= 3.25D-03
 IDIUse=3 WtCom= 9.77D-01 WtEn= 2.26D-02
 Coeff-Com:  0.358D-01-0.155D+00 0.336D+00 0.784D+00
 Coeff-En:   0.000D+00 0.000D+00 0.000D+00 0.100D+01
 Coeff:      0.350D-01-0.152D+00 0.328D+00 0.789D+00
 Gap=     0.554 Goal=   None    Shift=    0.000
 RMSDP=3.52D-04 MaxDP=1.06D-02 DE=-3.53D-03 OVMax= 1.44D-02

 Cycle   5  Pass 0  IDiag  1:
 RMSU=  2.01D-04    CP:  1.00D+00  1.20D+00  1.44D+00  1.09D+00
 E= -253.446060256804     Delta-E=       -0.000947584071 Rises=F Damp=F
 DIIS: error= 6.10D-04 at cycle   5 NSaved=   5.
 NSaved= 5 IEnMin= 5 EnMin= -253.446060256804     IErMin= 5 ErrMin= 6.10D-04
 ErrMax= 6.10D-04  0.00D+00 EMaxC= 1.00D-01 BMatC= 4.44D-05 BMatP= 6.47D-04
 IDIUse=3 WtCom= 9.94D-01 WtEn= 6.10D-03
 Coeff-Com: -0.154D-01 0.543D-01-0.144D+00-0.154D+00 0.126D+01
 Coeff-En:   0.000D+00 0.000D+00 0.000D+00 0.000D+00 0.100D+01
 Coeff:     -0.153D-01 0.539D-01-0.143D+00-0.153D+00 0.126D+01
 Gap=     0.549 Goal=   None    Shift=    0.000
 RMSDP=1.75D-04 MaxDP=5.30D-03 DE=-9.48D-04 OVMax= 6.05D-03

 Cycle   6  Pass 0  IDiag  1:
 RMSU=  6.13D-05    CP:  1.00D+00  1.20D+00  1.49D+00  1.25D+00  1.43D+00
 E= -253.446207257588     Delta-E=       -0.000147000783 Rises=F Damp=F
 DIIS: error= 2.07D-04 at cycle   6 NSaved=   6.
 NSaved= 6 IEnMin= 6 EnMin= -253.446207257588     IErMin= 6 ErrMin= 2.07D-04
 ErrMax= 2.07D-04  0.00D+00 EMaxC= 1.00D-01 BMatC= 1.16D-05 BMatP= 4.44D-05
 IDIUse=3 WtCom= 9.98D-01 WtEn= 2.07D-03
 Coeff-Com: -0.871D-02 0.346D-01-0.107D+00-0.153D+00 0.405D+00 0.830D+00
 Coeff-En:   0.000D+00 0.000D+00 0.000D+00 0.000D+00 0.000D+00 0.100D+01
 Coeff:     -0.869D-02 0.345D-01-0.107D+00-0.153D+00 0.404D+00 0.830D+00
 Gap=     0.549 Goal=   None    Shift=    0.000
 RMSDP=7.45D-05 MaxDP=1.97D-03 DE=-1.47D-04 OVMax= 2.76D-03

 Cycle   7  Pass 0  IDiag  1:
 RMSU=  1.98D-05    CP:  9.99D-01  1.20D+00  1.51D+00  1.30D+00  1.59D+00
                    CP:  1.24D+00
 E= -253.446228978420     Delta-E=       -0.000021720832 Rises=F Damp=F
 DIIS: error= 4.77D-05 at cycle   7 NSaved=   7.
 NSaved= 7 IEnMin= 7 EnMin= -253.446228978420     IErMin= 7 ErrMin= 4.77D-05
 ErrMax= 4.77D-05  0.00D+00 EMaxC= 1.00D-01 BMatC= 6.80D-07 BMatP= 1.16D-05
 IDIUse=1 WtCom= 1.00D+00 WtEn= 0.00D+00
 Coeff-Com:  0.278D-02-0.776D-02 0.185D-01 0.320D-01-0.157D+00-0.116D+00
 Coeff-Com:  0.123D+01
 Coeff:      0.278D-02-0.776D-02 0.185D-01 0.320D-01-0.157D+00-0.116D+00
 Coeff:      0.123D+01
 Gap=     0.549 Goal=   None    Shift=    0.000
 RMSDP=2.17D-05 MaxDP=5.29D-04 DE=-2.17D-05 OVMax= 7.84D-04

 Cycle   8  Pass 0  IDiag  1:
 RMSU=  5.51D-06    CP:  9.99D-01  1.20D+00  1.52D+00  1.32D+00  1.64D+00
                    CP:  1.39D+00  1.27D+00
 E= -253.446230480394     Delta-E=       -0.000001501975 Rises=F Damp=F
 DIIS: error= 1.28D-05 at cycle   8 NSaved=   8.
 NSaved= 8 IEnMin= 8 EnMin= -253.446230480394     IErMin= 8 ErrMin= 1.28D-05
 ErrMax= 1.28D-05  0.00D+00 EMaxC= 1.00D-01 BMatC= 4.18D-08 BMatP= 6.80D-07
 IDIUse=1 WtCom= 1.00D+00 WtEn= 0.00D+00
 Coeff-Com:  0.615D-03-0.187D-02 0.638D-02 0.843D-02-0.402D-01-0.334D-01
 Coeff-Com:  0.223D+00 0.837D+00
 Coeff:      0.615D-03-0.187D-02 0.638D-02 0.843D-02-0.402D-01-0.334D-01
 Coeff:      0.223D+00 0.837D+00
 Gap=     0.549 Goal=   None    Shift=    0.000
 RMSDP=1.96D-06 MaxDP=4.24D-05 DE=-1.50D-06 OVMax= 5.90D-05

 Initial convergence to 1.0D-05 achieved.  Increase integral accuracy.
 Cycle   9  Pass 1  IDiag  1:
 E= -253.446230534755     Delta-E=       -0.000000054360 Rises=F Damp=F
 DIIS: error= 6.98D-06 at cycle   1 NSaved=   1.
 NSaved= 1 IEnMin= 1 EnMin= -253.446230534755     IErMin= 1 ErrMin= 6.98D-06
 ErrMax= 6.98D-06  0.00D+00 EMaxC= 1.00D-01 BMatC= 7.28D-09 BMatP= 7.28D-09
 IDIUse=1 WtCom= 1.00D+00 WtEn= 0.00D+00
 Coeff-Com:  0.100D+01
 Coeff:      0.100D+01
 Gap=     0.548 Goal=   None    Shift=    0.000
 RMSDP=1.96D-06 MaxDP=4.24D-05 DE=-5.44D-08 OVMax= 3.71D-05

 Cycle  10  Pass 1  IDiag  1:
 RMSU=  8.92D-07    CP:  1.00D+00
 E= -253.446230545974     Delta-E=       -0.000000011219 Rises=F Damp=F
 DIIS: error= 3.24D-06 at cycle   2 NSaved=   2.
 NSaved= 2 IEnMin= 2 EnMin= -253.446230545974     IErMin= 2 ErrMin= 3.24D-06
 ErrMax= 3.24D-06  0.00D+00 EMaxC= 1.00D-01 BMatC= 2.42D-09 BMatP= 7.28D-09
 IDIUse=1 WtCom= 1.00D+00 WtEn= 0.00D+00
 Coeff-Com:  0.286D+00 0.714D+00
 Coeff:      0.286D+00 0.714D+00
 Gap=     0.548 Goal=   None    Shift=    0.000
 RMSDP=3.44D-07 MaxDP=1.01D-05 DE=-1.12D-08 OVMax= 1.34D-05

 Cycle  11  Pass 1  IDiag  1:
 RMSU=  3.23D-07    CP:  1.00D+00  1.13D+00
 E= -253.446230549017     Delta-E=       -0.000000003042 Rises=F Damp=F
 DIIS: error= 1.45D-06 at cycle   3 NSaved=   3.
 NSaved= 3 IEnMin= 3 EnMin= -253.446230549017     IErMin= 3 ErrMin= 1.45D-06
 ErrMax= 1.45D-06  0.00D+00 EMaxC= 1.00D-01 BMatC= 4.27D-10 BMatP= 2.42D-09
 IDIUse=1 WtCom= 1.00D+00 WtEn= 0.00D+00
 Coeff-Com: -0.357D+00-0.187D+00 0.154D+01
 Coeff:     -0.357D+00-0.187D+00 0.154D+01
 Gap=     0.548 Goal=   None    Shift=    0.000
 RMSDP=4.49D-07 MaxDP=1.04D-05 DE=-3.04D-09 OVMax= 2.17D-05

 Cycle  12  Pass 1  IDiag  1:
 RMSU=  1.16D-07    CP:  1.00D+00  1.56D+00  1.62D+00
 E= -253.446230550424     Delta-E=       -0.000000001407 Rises=F Damp=F
 DIIS: error= 2.26D-07 at cycle   4 NSaved=   4.
 NSaved= 4 IEnMin= 4 EnMin= -253.446230550424     IErMin= 4 ErrMin= 2.26D-07
 ErrMax= 2.26D-07  0.00D+00 EMaxC= 1.00D-01 BMatC= 1.42D-11 BMatP= 4.27D-10
 IDIUse=1 WtCom= 1.00D+00 WtEn= 0.00D+00
 Coeff-Com: -0.812D-01-0.596D-01 0.321D+00 0.820D+00
 Coeff:     -0.812D-01-0.596D-01 0.321D+00 0.820D+00
 Gap=     0.548 Goal=   None    Shift=    0.000
 RMSDP=5.07D-08 MaxDP=1.33D-06 DE=-1.41D-09 OVMax= 2.58D-06

 Cycle  13  Pass 1  IDiag  1:
 RMSU=  2.93D-08    CP:  1.00D+00  1.58D+00  1.68D+00  1.25D+00
 E= -253.446230550451     Delta-E=       -0.000000000027 Rises=F Damp=F
 DIIS: error= 1.05D-07 at cycle   5 NSaved=   5.
 NSaved= 5 IEnMin= 5 EnMin= -253.446230550451     IErMin= 5 ErrMin= 1.05D-07
 ErrMax= 1.05D-07  0.00D+00 EMaxC= 1.00D-01 BMatC= 2.71D-12 BMatP= 1.42D-11
 IDIUse=1 WtCom= 1.00D+00 WtEn= 0.00D+00
 Coeff-Com:  0.920D-01 0.471D-01-0.396D+00-0.292D-01 0.129D+01
 Coeff:      0.920D-01 0.471D-01-0.396D+00-0.292D-01 0.129D+01
 Gap=     0.548 Goal=   None    Shift=    0.000
 RMSDP=4.30D-08 MaxDP=1.25D-06 DE=-2.68D-11 OVMax= 1.83D-06

 Cycle  14  Pass 1  IDiag  1:
 RMSU=  9.39D-09    CP:  1.00D+00  1.59D+00  1.73D+00  1.57D+00  1.38D+00
 E= -253.446230550460     Delta-E=       -0.000000000009 Rises=F Damp=F
 DIIS: error= 2.18D-08 at cycle   6 NSaved=   6.
 NSaved= 6 IEnMin= 6 EnMin= -253.446230550460     IErMin= 6 ErrMin= 2.18D-08
 ErrMax= 2.18D-08  0.00D+00 EMaxC= 1.00D-01 BMatC= 1.30D-13 BMatP= 2.71D-12
 IDIUse=1 WtCom= 1.00D+00 WtEn= 0.00D+00
 Coeff-Com:  0.182D-01 0.101D-01-0.772D-01-0.302D-01 0.210D+00 0.869D+00
 Coeff:      0.182D-01 0.101D-01-0.772D-01-0.302D-01 0.210D+00 0.869D+00
 Gap=     0.548 Goal=   None    Shift=    0.000
 RMSDP=5.18D-09 MaxDP=1.03D-07 DE=-9.44D-12 OVMax= 2.32D-07

 SCF Done:  E(RHF) =  -253.446230550     A.U. after   14 cycles
            NFock= 14  Conv=0.52D-08     -V/T= 2.9206
 KE= 1.319586439379D+02 PE=-1.164966300414D+03 EE= 4.700403137081D+02
 Leave Link  502 at Wed May 11 22:13:15 2022, MaxMem= 67108864000 cpu:              59.0 elap:               2.1
 (Enter /cm/shared/apps/gaussian/intel/EM64T/SSE4_2-enabled/binary//g16/l801.exe)
 Range of M.O.s used for correlation:     1   129
 NBasis=   129 NAE=    33 NBE=    33 NFC=     0 NFV=     0
 NROrb=    129 NOA=    33 NOB=    33 NVA=    96 NVB=    96

 **** Warning!!: The largest alpha MO coefficient is  0.28653709D+02

 Leave Link  801 at Wed May 11 22:13:15 2022, MaxMem= 67108864000 cpu:               1.0 elap:               0.1
 (Enter /cm/shared/apps/gaussian/intel/EM64T/SSE4_2-enabled/binary//g16/l906.exe)
 FulOut=F Deriv=T AODrv=T NAtomX=    19
   MMem=           0  MDisk=          33 MDiskD=          33
  W3Min=      549153 MinDsk=     1693460 NBas6D=         129
 NBas2D=        8499    NTT=        8385    LW2=     3308096
    MDV= 67108629387 MDiskM=     7225089 NBas2p=        7745
 Disk-based method using ON**2 memory for 33 occupieds at a time.
 Permanent disk used for amplitudes=    12443904 words.
 Estimated scratch disk usage=   126163713 words.
 IMap=   1   2   3   4   5   6   7   8   9  10  11  12  13  14  15  16  17  18  19  20
 IMap=  21  22  23  24  25  26  27  28  29  30  31  32  33
 Actual    scratch disk usage=   115175169 words.
 JobTyp=1 Pass  1:  I=   1 to  33 NPSUse= 28 ParTrn=T ParDer=T DoDerP=T.
 (rs|ai) integrals will be sorted in core.
 Spin components of T(2) and E(2):
     alpha-alpha T2 =       0.3659351748D-01 E2=     -0.1171363239D+00
     alpha-beta  T2 =       0.2135744634D+00 E2=     -0.6944306302D+00
     beta-beta   T2 =       0.3659351748D-01 E2=     -0.1171363239D+00
 The integrals were generated   1 times.
 ANorm=    0.1134355102D+01
 E2 =    -0.9287032781D+00 EUMP2 =    -0.25437493382854D+03
 Leave Link  906 at Wed May 11 22:13:30 2022, MaxMem= 67108864000 cpu:             411.0 elap:              14.7
 (Enter /cm/shared/apps/gaussian/intel/EM64T/SSE4_2-enabled/binary//g16/l1101.exe)
 Using compressed Sx but separate Hx and Fx, NAtomX=    19.
 Will process     20 centers per pass.
   1 Symmetry operations used in ECPInt.
 ECPInt:  NShTT=    2346 NPrTT=    7709 LenC2=    2209 LenP2D=    5479.
 LDataN:  DoStor=T MaxTD1= 8 Len=  415
 Leave Link 1101 at Wed May 11 22:13:31 2022, MaxMem= 67108864000 cpu:              12.6 elap:               0.5
 (Enter /cm/shared/apps/gaussian/intel/EM64T/SSE4_2-enabled/binary//g16/l1102.exe)
 Leave Link 1102 at Wed May 11 22:13:31 2022, MaxMem= 67108864000 cpu:               0.6 elap:               0.0
 (Enter /cm/shared/apps/gaussian/intel/EM64T/SSE4_2-enabled/binary//g16/l1110.exe)
 Forming Gx(P) for the SCF density, NAtomX=    19.
 Integral derivatives from FoFJK, PRISM(SPDF).
 Do as many integral derivatives as possible in FoFJK.
 G2DrvN: MDV=   67108862534.
 G2DrvN: will do    20 centers at a time, making    1 passes.
 Calling FoFCou, ICntrl=  3107 FMM=F I1Cent=   0 AccDes= 0.00D+00.
 FoFJK:  IHMeth= 1 ICntrl=    3107 DoSepK=F KAlg= 0 I1Cent=           0 FoldK=F
 IRaf=         0 NMat=       1 IRICut=       1 DoRegI=T DoRafI=F ISym2E= 0 IDoP0=0 IntGTp=1.
 FoFCou: FMM=F IPFlag=           0 FMFlag=      100000 FMFlg1=           0
         NFxFlg=           0 DoJE=F BraDBF=F KetDBF=F FulRan=T
         wScrn=  0.000000 ICntrl=      3107 IOpCl=  0 I1Cent=           0 NGrid=           0
         NMat0=    1 NMatS0=      1 NMatT0=    0 NMatD0=    1 NMtDS0=    0 NMtDT0=    0
 Symmetry not used in FoFCou.
 End of G2Drv F.D. properties file   721 does not exist.
 End of G2Drv F.D. properties file   722 does not exist.
 End of G2Drv F.D. properties file   788 does not exist.
 Leave Link 1110 at Wed May 11 22:13:31 2022, MaxMem= 67108864000 cpu:              13.0 elap:               0.5
 (Enter /cm/shared/apps/gaussian/intel/EM64T/SSE4_2-enabled/binary//g16/l1002.exe)
 Minotr:  Closed shell wavefunction.
          IDoAtm=1111111111111111111
          Direct CPHF calculation.
          Differentiating once with respect to electric field.
                with respect to dipole field.
          Differentiating once with respect to nuclear coordinates.
          Requested convergence is 1.0D-08 RMS, and 1.0D-07 maximum.
          Secondary convergence is 1.0D-12 RMS, and 1.0D-12 maximum.
          NewPWx=T KeepS1=T KeepF1=T KeepIn=T MapXYZ=F SortEE=F KeepMc=T.
 Keep R1 ints in memory in canonical form, NReq=41150463.
 FoFCou: FMM=F IPFlag=           0 FMFlag=           0 FMFlg1=           0
         NFxFlg=           0 DoJE=F BraDBF=F KetDBF=F FulRan=T
         wScrn=  0.000000 ICntrl=       600 IOpCl=  0 I1Cent=           0 NGrid=           0
         NMat0=    1 NMatS0=   8385 NMatT0=    0 NMatD0=    1 NMtDS0=    0 NMtDT0=    0
 Symmetry not used in FoFCou.
 Two-electron integral symmetry not used.
          MDV=   67108864000 using IRadAn=       1.
          Solving linear equations simultaneously, MaxMat=       0.
          There are    60 degrees of freedom in the 1st order CPHF.  IDoFFX=6 NUNeed=    60.
     57 vectors produced by pass  0 Test12= 5.28D-15 1.67D-09 XBig12= 1.30D+01 1.27D+00.
 AX will form    57 AO Fock derivatives at one time.
     57 vectors produced by pass  1 Test12= 5.28D-15 1.67D-09 XBig12= 2.97D-01 9.53D-02.
     57 vectors produced by pass  2 Test12= 5.28D-15 1.67D-09 XBig12= 5.19D-03 1.61D-02.
     57 vectors produced by pass  3 Test12= 5.28D-15 1.67D-09 XBig12= 3.33D-05 1.17D-03.
     57 vectors produced by pass  4 Test12= 5.28D-15 1.67D-09 XBig12= 2.07D-07 9.20D-05.
     57 vectors produced by pass  5 Test12= 5.28D-15 1.67D-09 XBig12= 1.46D-09 5.29D-06.
     31 vectors produced by pass  6 Test12= 5.28D-15 1.67D-09 XBig12= 7.47D-12 3.37D-07.
      3 vectors produced by pass  7 Test12= 5.28D-15 1.67D-09 XBig12= 3.04D-14 1.65D-08.
 InvSVY:  IOpt=1 It=  1 EMax= 1.78D-15
 Solved reduced A of dimension   376 with    60 vectors.
 FullF1:  Do perturbations      1 to      60.
 Saving first derivative matrices.
 End of Minotr F.D. properties file   721 does not exist.
 End of Minotr F.D. properties file   722 does not exist.
 End of Minotr F.D. properties file   788 does not exist.
 Leave Link 1002 at Wed May 11 22:13:33 2022, MaxMem= 67108864000 cpu:              47.7 elap:               1.7
 (Enter /cm/shared/apps/gaussian/intel/EM64T/SSE4_2-enabled/binary//g16/l811.exe)
 MDV= 67108864000.
 Form MO integral derivatives with frozen-active canonical formalism.
 MOERI=1 MOERIx=1 NAtoms=    19 NAtomX=    19.
 Discarding MO integrals.
 MO basis two electron integral derivatives will not be stored on disk.
 IAlg= 3 DoFC=T DoPWx=T Debug=F.
 Reordered first order wavefunction length =     20072448
 In DefCFB: NBatch=  1 ICI= 33 ICA= 96 LFMax= 96
            Large arrays: LIAPS=   210874752 LIARS=   111567456 words.
 In StABat: MaxSiz= 39 MinSiz= 13 NAtomB=  4
 DoIAMN: NPSUse= 28.
 Leave Link  811 at Wed May 11 22:14:14 2022, MaxMem= 67108864000 cpu:            1153.8 elap:              41.3
 (Enter /cm/shared/apps/gaussian/intel/EM64T/SSE4_2-enabled/binary//g16/l804.exe)
 Closed-shell transformation, MDV= 67108864000 ITran=4 ISComp=1.
 Semi-Direct transformation.
 ModeAB=           4 MOrb=            33 LenV=   67108322008
 LASXX=     28702344 LTotXX=    28702344 LenRXX=    58192761
 LTotAB=    29490417 MaxLAS=    32400027 LenRXY=           0
 NonZer=    86895105 LenScr=   131092480 LnRSAI=    32400027
 LnScr1=    49383936 LExtra=           0 Total=    271069204
 MaxDsk=          -1 SrtSym=           T ITran=            4
 DoSDTr:  NPSUse= 28
 JobTyp=0 Pass  1:  I=   1 to  33.
 (rs|ai) integrals will be sorted in core.
 Complete sort for first half transformation.
 First half transformation complete.
 Begin second half transformation for I=  10.
 Begin second half transformation for I=  20.
 Begin second half transformation for I=  30.
 Complete sort for second half transformation.
 Second half transformation complete.
 SymMOI:  orbitals are not symmetric.
 Spin components of T(2) and E(2):
     alpha-alpha T2 =       0.3659351748D-01 E2=     -0.1171363239D+00
     alpha-beta  T2 =       0.2135744634D+00 E2=     -0.6944306302D+00
     beta-beta   T2 =       0.3659351748D-01 E2=     -0.1171363239D+00
 ANorm=    0.1604220370D+01
 E2 =    -0.9287032781D+00 EUMP2 =    -0.25437493382854D+03
 Leave Link  804 at Wed May 11 22:14:19 2022, MaxMem= 67108864000 cpu:             140.7 elap:               5.1
 (Enter /cm/shared/apps/gaussian/intel/EM64T/SSE4_2-enabled/binary//g16/l1002.exe)
 Minotr:  Closed shell wavefunction.
          Computing MP2/KS-MP2 derivatives.
          Using Z-Vector for PSCF gradient.
          Skipping F1 and S1 gradient terms here.
          IDoAtm=1111111111111111111
          Using MO integrals in the linear equations.
          Forming densities via direct SCF.
          Differentiating once with respect to electric field.
                with respect to dipole field.
          Differentiating once with respect to nuclear coordinates.
          Requested convergence is 1.0D-10 RMS, and 1.0D-09 maximum.
          NewPWx=F KeepS1=T KeepF1=T KeepIn=T MapXYZ=F SortEE=F KeepMc=T.
          MDV=   67108864000 using IRadAn=       5.
          Solving linear equations separately, MaxMat=       0.
          There are     1 degrees of freedom in the 1st order CPHF.  IDoFFX=0 NUNeed=     1.
 FoFJK:  IHMeth= 1 ICntrl=       0 DoSepK=F KAlg= 0 I1Cent=           0 FoldK=F
 IRaf=         0 NMat=       1 IRICut=       1 DoRegI=T DoRafI=F ISym2E= 0 IDoP0=0 IntGTp=1.
 FoFCou: FMM=F IPFlag=           0 FMFlag=      100000 FMFlg1=           0
         NFxFlg=           0 DoJE=F BraDBF=F KetDBF=F FulRan=T
         wScrn=  0.000000 ICntrl=         0 IOpCl=  0 I1Cent=           0 NGrid=           0
         NMat0=    1 NMatS0=      1 NMatT0=    0 NMatD0=    1 NMtDS0=    0 NMtDT0=    0
 Symmetry not used in FoFCou.
 LinEq1:  Iter=  0 NonCon=     1 RMS=6.44D-03 Max=1.19D-01 NDo=     1
 LinEq1:  Iter=  1 NonCon=     1 RMS=1.40D-03 Max=1.07D-02 NDo=     1
 LinEq1:  Iter=  2 NonCon=     1 RMS=4.55D-04 Max=9.20D-03 NDo=     1
 LinEq1:  Iter=  3 NonCon=     1 RMS=1.66D-04 Max=2.13D-03 NDo=     1
 LinEq1:  Iter=  4 NonCon=     1 RMS=5.17D-05 Max=9.08D-04 NDo=     1
 LinEq1:  Iter=  5 NonCon=     1 RMS=1.39D-05 Max=1.90D-04 NDo=     1
 LinEq1:  Iter=  6 NonCon=     1 RMS=5.67D-06 Max=5.45D-05 NDo=     1
 LinEq1:  Iter=  7 NonCon=     1 RMS=1.16D-06 Max=1.25D-05 NDo=     1
 LinEq1:  Iter=  8 NonCon=     1 RMS=4.99D-07 Max=4.77D-06 NDo=     1
 LinEq1:  Iter=  9 NonCon=     1 RMS=1.19D-07 Max=1.73D-06 NDo=     1
 LinEq1:  Iter= 10 NonCon=     1 RMS=2.42D-08 Max=2.72D-07 NDo=     1
 LinEq1:  Iter= 11 NonCon=     1 RMS=1.02D-08 Max=1.20D-07 NDo=     1
 LinEq1:  Iter= 12 NonCon=     1 RMS=2.20D-09 Max=4.09D-08 NDo=     1
 LinEq1:  Iter= 13 NonCon=     1 RMS=3.88D-10 Max=6.23D-09 NDo=     1
 LinEq1:  Iter= 14 NonCon=     0 RMS=7.60D-11 Max=9.26D-10 NDo=     1
 Linear equations converged to 1.000D-10 1.000D-09 after    14 iterations.
 End of Minotr F.D. properties file   721 does not exist.
 End of Minotr F.D. properties file   722 does not exist.
 End of Minotr F.D. properties file   788 does not exist.
 Leave Link 1002 at Wed May 11 22:14:22 2022, MaxMem= 67108864000 cpu:              66.8 elap:               2.4
 (Enter /cm/shared/apps/gaussian/intel/EM64T/SSE4_2-enabled/binary//g16/l1102.exe)
 Use density number 2.
 Symmetrizing basis deriv contribution to polar:
 IMax=3 JMax=2 DiffMx= 0.00D+00
 Leave Link 1102 at Wed May 11 22:14:22 2022, MaxMem= 67108864000 cpu:               1.5 elap:               0.1
 (Enter /cm/shared/apps/gaussian/intel/EM64T/SSE4_2-enabled/binary//g16/l1110.exe)
 Forming Gx(P) for generalized density number  2 NAtomX=    19.
 Integral derivatives from FoFJK, PRISM(SPDF).
 Do as many integral derivatives as possible in FoFJK.
 G2DrvN: MDV=   67108862534.
 G2DrvN: will do    20 centers at a time, making    1 passes.
 Calling FoFCou, ICntrl=  3107 FMM=F I1Cent=   0 AccDes= 0.00D+00.
 FoFJK:  IHMeth= 1 ICntrl=    3107 DoSepK=F KAlg= 0 I1Cent=           0 FoldK=F
 IRaf=         0 NMat=       1 IRICut=       1 DoRegI=T DoRafI=F ISym2E= 0 IDoP0=0 IntGTp=1.
 FoFCou: FMM=F IPFlag=           0 FMFlag=      100000 FMFlg1=           0
         NFxFlg=           0 DoJE=F BraDBF=F KetDBF=F FulRan=T
         wScrn=  0.000000 ICntrl=      3107 IOpCl=  0 I1Cent=           0 NGrid=           0
         NMat0=    1 NMatS0=      1 NMatT0=    0 NMatD0=    1 NMtDS0=    0 NMtDT0=    0
 Symmetry not used in FoFCou.
 End of G2Drv F.D. properties file   721 does not exist.
 End of G2Drv F.D. properties file   722 does not exist.
 End of G2Drv F.D. properties file   788 does not exist.
 Leave Link 1110 at Wed May 11 22:14:22 2022, MaxMem= 67108864000 cpu:              12.0 elap:               0.5
 (Enter /cm/shared/apps/gaussian/intel/EM64T/SSE4_2-enabled/binary//g16/l1112.exe)
 MP22nd: MDV=   67108864000
 This link is doing NAtomX=    19 total of    60 degrees of freedom.
 Using ON3 I/O method in MakUI.
 Using Ix for Sx.
 Using OV2 memory method for fx*t*t/D, MaxI=    33 DoOO2=F NP=  28.
 R2 and R3 integrals will be kept in memory, NReq=    71415045.
 FoFCou: FMM=F IPFlag=           0 FMFlag=           0 FMFlg1=           0
         NFxFlg=           0 DoJE=F BraDBF=F KetDBF=F FulRan=T
         wScrn=  0.000000 ICntrl=       600 IOpCl=  0 I1Cent=           0 NGrid=           0
         NMat0=    1 NMatS0=      1 NMatT0=    0 NMatD0=    1 NMtDS0=    0 NMtDT0=    0
 Symmetry not used in FoFCou.
 DD1Dir will call FoFMem   1 times, MxPair=      1122
 NAB=   561 NAA=     0 NBB=     0.
 Symmetry is being used.
 FoFJK:  IHMeth= 1 ICntrl=       0 DoSepK=F KAlg= 0 I1Cent=           0 FoldK=F
 IRaf=         0 NMat=      60 IRICut=     150 DoRegI=T DoRafI=T ISym2E= 2 IDoP0=0 IntGTp=1.
 Discarding MO integrals.
 Leave Link 1112 at Wed May 11 22:14:57 2022, MaxMem= 67108864000 cpu:             971.8 elap:              35.0
 (Enter /cm/shared/apps/gaussian/intel/EM64T/SSE4_2-enabled/binary//g16/l601.exe)
 Copying SCF densities to generalized density rwf, IOpCl= 0 IROHF=0.

 **********************************************************************

            Population analysis using the SCF density.

 **********************************************************************

 Orbital symmetries:
       Occupied  (A) (A) (A) (A) (A) (A) (A) (A) (A) (A) (A) (A)
                 (A) (A) (A) (A) (A) (A) (A) (A) (A) (A) (A) (A)
                 (A) (A) (A) (A) (A) (A) (A) (A) (A)
       Virtual   (A) (A) (A) (A) (A) (A) (A) (A) (A) (A) (A) (A)
                 (A) (A) (A) (A) (A) (A) (A) (A) (A) (A) (A) (A)
                 (A) (A) (A) (A) (A) (A) (A) (A) (A) (A) (A) (A)
                 (A) (A) (A) (A) (A) (A) (A) (A) (A) (A) (A) (A)
                 (A) (A) (A) (A) (A) (A) (A) (A) (A) (A) (A) (A)
                 (A) (A) (A) (A) (A) (A) (A) (A) (A) (A) (A) (A)
                 (A) (A) (A) (A) (A) (A) (A) (A) (A) (A) (A) (A)
                 (A) (A) (A) (A) (A) (A) (A) (A) (A) (A) (A) (A)
 The electronic state is 1-A.
 Alpha  occ. eigenvalues --   -5.40468  -3.39976  -3.39433  -3.39382  -1.70554
 Alpha  occ. eigenvalues --   -1.66227  -1.66045  -1.64658  -1.62178  -1.59048
 Alpha  occ. eigenvalues --   -1.06340  -1.05194  -1.04648  -1.03381  -1.01348
 Alpha  occ. eigenvalues --   -0.99448  -0.99333  -0.98641  -0.96822  -0.96127
 Alpha  occ. eigenvalues --   -0.96119  -0.92240  -0.88878  -0.87085  -0.84455
 Alpha  occ. eigenvalues --   -0.83228  -0.83063  -0.81152  -0.79946  -0.79081
 Alpha  occ. eigenvalues --   -0.78529  -0.77002  -0.76323
 Alpha virt. eigenvalues --   -0.21477  -0.17350  -0.16717  -0.13326  -0.12910
 Alpha virt. eigenvalues --   -0.09166  -0.08742  -0.07459  -0.06498  -0.05339
 Alpha virt. eigenvalues --   -0.04769  -0.04289  -0.03433  -0.02882  -0.01371
 Alpha virt. eigenvalues --   -0.00816  -0.00196   0.00498   0.01456   0.02006
 Alpha virt. eigenvalues --    0.02781   0.03131   0.04055   0.04543   0.05638
 Alpha virt. eigenvalues --    0.06646   0.07414   0.09730   0.10499   0.11555
 Alpha virt. eigenvalues --    0.12440   0.13353   0.14767   0.15358   0.15703
 Alpha virt. eigenvalues --    0.17825   0.18644   0.18783   0.22590   0.23363
 Alpha virt. eigenvalues --    0.24986   0.27950   0.28660   0.30143   0.38088
 Alpha virt. eigenvalues --    0.64704   0.64866   0.70639   0.71538   0.94079
 Alpha virt. eigenvalues --    0.98941   1.04814   1.06258   1.07584   1.08908
 Alpha virt. eigenvalues --    1.09979   1.10073   1.10696   1.11181   1.12229
 Alpha virt. eigenvalues --    1.14453   1.15215   1.16874   1.16949   1.17311
 Alpha virt. eigenvalues --    1.17909   1.19791   1.19968   1.21323   1.21914
 Alpha virt. eigenvalues --    1.23155   1.25219   1.26278   1.29247   1.29277
 Alpha virt. eigenvalues --    1.33007   1.34029   1.36804   1.37657   1.39936
 Alpha virt. eigenvalues --    1.40401   1.46885   1.49549   1.61268   2.17264
 Alpha virt. eigenvalues --    2.29641   2.44731   2.65111   2.95847   3.11243
 Alpha virt. eigenvalues --    4.26502  15.50610  41.61449  41.61869  41.76026
 Alpha virt. eigenvalues --   81.49029
          Condensed to atoms (all electrons):
               1          2          3          4          5          6
     1  Hg  18.413225   0.000049   0.000185   0.000123  -0.017148   0.157712
     2  H    0.000049   0.143000   0.161667  -0.005163   0.000008  -0.000115
     3  O    0.000185   0.161667   6.402692   0.251266   0.001691  -0.013591
     4  H    0.000123  -0.005163   0.251266   0.235979   0.000003   0.001967
     5  H   -0.017148   0.000008   0.001691   0.000003   0.276511   0.244443
     6  O    0.157712  -0.000115  -0.013591   0.001967   0.244443   6.677902
     7  H    0.001293  -0.000475   0.175319  -0.007349  -0.001833   0.047213
     8  H    0.000820  -0.000000  -0.000000  -0.000000  -0.000000   0.000000
     9  O   -0.003860  -0.000000   0.000002   0.000000   0.000003   0.000016
    10  H    0.000560   0.000000  -0.000000  -0.000000   0.000000   0.000002
    11  H   -0.003433  -0.000000   0.000000   0.000000   0.000000   0.000065
    12  O    0.136820   0.000000  -0.000026   0.000001  -0.000024  -0.003603
    13  H   -0.003734  -0.000000   0.000000   0.000000   0.000000   0.000043
    14  H    0.000015  -0.001467   0.002253  -0.000021   0.000000   0.000039
    15  O    0.000282   0.084028  -0.058486   0.000633   0.000091  -0.001419
    16  H    0.000029  -0.001618   0.001126  -0.000011   0.000000   0.000003
    17  H    0.000557   0.000000  -0.000000   0.000000  -0.000000   0.000003
    18  O   -0.003613  -0.000000   0.000000  -0.000000   0.000007  -0.000028
    19  H    0.000774  -0.000000  -0.000000   0.000000  -0.000000   0.000001
               7          8          9         10         11         12
     1  Hg   0.001293   0.000820  -0.003860   0.000560  -0.003433   0.136820
     2  H   -0.000475  -0.000000  -0.000000   0.000000  -0.000000   0.000000
     3  O    0.175319  -0.000000   0.000002  -0.000000   0.000000  -0.000026
     4  H   -0.007349  -0.000000   0.000000  -0.000000   0.000000   0.000001
     5  H   -0.001833  -0.000000   0.000003   0.000000   0.000000  -0.000024
     6  O    0.047213   0.000000   0.000016   0.000002   0.000065  -0.003603
     7  H    0.139981  -0.000000   0.000001   0.000000   0.000000  -0.000042
     8  H   -0.000000   0.243329   0.264128  -0.015657  -0.000007   0.000454
     9  O    0.000001   0.264128   6.391995   0.262233   0.000013  -0.029685
    10  H    0.000000  -0.015657   0.262233   0.248472   0.000003   0.000479
    11  H    0.000000  -0.000007   0.000013   0.000003   0.144296   0.184428
    12  O   -0.000042   0.000454  -0.029685   0.000479   0.184428   6.687715
    13  H   -0.000000  -0.001009   0.045146  -0.000960  -0.002802   0.185816
    14  H   -0.000007  -0.000000  -0.000000   0.000000   0.000000  -0.000000
    15  O    0.000717  -0.000000  -0.000000  -0.000000  -0.000000  -0.000001
    16  H   -0.000005  -0.000000  -0.000000   0.000000  -0.000000  -0.000000
    17  H    0.000000  -0.000000   0.000046  -0.000000  -0.000903   0.000469
    18  O   -0.000000   0.000004  -0.000991   0.000044   0.046720  -0.031307
    19  H   -0.000000  -0.000000   0.000003  -0.000000  -0.001040   0.000611
              13         14         15         16         17         18
     1  Hg  -0.003734   0.000015   0.000282   0.000029   0.000557  -0.003613
     2  H   -0.000000  -0.001467   0.084028  -0.001618   0.000000  -0.000000
     3  O    0.000000   0.002253  -0.058486   0.001126  -0.000000   0.000000
     4  H    0.000000  -0.000021   0.000633  -0.000011   0.000000  -0.000000
     5  H    0.000000   0.000000   0.000091   0.000000  -0.000000   0.000007
     6  O    0.000043   0.000039  -0.001419   0.000003   0.000003  -0.000028
     7  H   -0.000000  -0.000007   0.000717  -0.000005   0.000000  -0.000000
     8  H   -0.001009  -0.000000  -0.000000  -0.000000  -0.000000   0.000004
     9  O    0.045146  -0.000000  -0.000000  -0.000000   0.000046  -0.000991
    10  H   -0.000960   0.000000  -0.000000   0.000000  -0.000000   0.000044
    11  H   -0.002802   0.000000  -0.000000  -0.000000  -0.000903   0.046720
    12  O    0.185816  -0.000000  -0.000001  -0.000000   0.000469  -0.031307
    13  H    0.145552   0.000000  -0.000000  -0.000000   0.000001   0.000057
    14  H    0.000000   0.235323   0.261865  -0.012786  -0.000000  -0.000000
    15  O   -0.000000   0.261865   6.350485   0.260833   0.000000  -0.000000
    16  H   -0.000000  -0.012786   0.260833   0.238962   0.000000   0.000000
    17  H    0.000001  -0.000000   0.000000   0.000000   0.246502   0.261879
    18  O    0.000057  -0.000000  -0.000000   0.000000   0.261879   6.393200
    19  H   -0.000007   0.000000   0.000000  -0.000000  -0.015426   0.263797
              19
     1  Hg   0.000774
     2  H   -0.000000
     3  O   -0.000000
     4  H    0.000000
     5  H   -0.000000
     6  O    0.000001
     7  H   -0.000000
     8  H   -0.000000
     9  O    0.000003
    10  H   -0.000000
    11  H   -0.001040
    12  O    0.000611
    13  H   -0.000007
    14  H    0.000000
    15  O    0.000000
    16  H   -0.000000
    17  H   -0.015426
    18  O    0.263797
    19  H    0.242467
 Mulliken charges:
               1
     1  Hg   1.319346
     2  H    0.620085
     3  O   -0.924099
     4  H    0.522573
     5  H    0.496247
     6  O   -1.110655
     7  H    0.645186
     8  H    0.507938
     9  O   -0.929049
    10  H    0.504825
    11  H    0.632660
    12  O   -1.132105
    13  H    0.631897
    14  H    0.514787
    15  O   -0.899027
    16  H    0.513467
    17  H    0.506873
    18  O   -0.929769
    19  H    0.508820
 Sum of Mulliken charges =   2.00000
 Mulliken charges with hydrogens summed into heavy atoms:
               1
     1  Hg   1.319346
     3  O    0.863745
     6  O   -0.614408
     9  O    0.083715
    12  O    0.132452
    15  O    0.129227
    18  O    0.085924
         Mulliken charges condensed to fragments:
      1      1.319346
      2      0.680654
 APT charges:
               1
     1  Hg   1.245268
     2  H    0.884723
     3  O   -1.012806
     4  H    0.406041
     5  H    0.275762
     6  O   -0.876121
     7  H    0.785791
     8  H    0.379502
     9  O   -0.775020
    10  H    0.371935
    11  H    0.751052
    12  O   -1.126920
    13  H    0.733610
    14  H    0.405511
    15  O   -0.822389
    16  H    0.401470
    17  H    0.374851
    18  O   -0.783724
    19  H    0.381462
 Sum of APT charges =   2.00000
 APT charges with hydrogens summed into heavy atoms:
               1
     1  Hg   1.245268
     3  O    1.063749
     6  O   -0.600359
     9  O   -0.023582
    12  O    0.357742
    15  O   -0.015407
    18  O   -0.027411
         APT charges condensed to fragments:
      1      1.245268
      2      0.754732
 Electronic spatial extent (au):  <R**2>=           2723.5651
 Charge=              2.0000 electrons
 Dipole moment (field-independent basis, Debye):
    X=              4.2899    Y=              1.4022    Z=              3.0857  Tot=              5.4673
 Quadrupole moment (field-independent basis, Debye-Ang):
   XX=            113.7879   YY=            -28.5196   ZZ=            -45.3317
   XY=             -6.0205   XZ=             -3.2206   YZ=              1.5194
 Traceless Quadrupole moment (field-independent basis, Debye-Ang):
   XX=            100.4757   YY=            -41.8318   ZZ=            -58.6439
   XY=             -6.0205   XZ=             -3.2206   YZ=              1.5194
 Octapole moment (field-independent basis, Debye-Ang**2):
  XXX=            396.2203  YYY=             48.4877  ZZZ=             -7.7519  XYY=            -69.2736
  XXY=             36.3036  XXZ=             80.0685  XZZ=            -17.8312  YZZ=            -10.6667
  YYZ=              8.4718  XYZ=              4.0507
 Hexadecapole moment (field-independent basis, Debye-Ang**3):
 XXXX=           2396.7295 YYYY=           -243.9878 ZZZZ=           -102.6856 XXXY=            427.0820
 XXXZ=              4.4528 YYYX=           -184.9981 YYYZ=             31.9573 ZZZX=            -32.3735
 ZZZY=             -2.1149 XXYY=            -44.4152 XXZZ=           -347.2565 YYZZ=            -54.0676
 XXYZ=             -3.1952 YYXZ=             -0.7502 ZZXY=            -26.5076
 N-N= 3.095211122176D+02 E-N=-1.164966299532D+03  KE= 1.319586439379D+02
  Exact polarizability:  78.988  -1.254  52.980  -2.030   0.000  46.488
 Approx polarizability:  42.306   0.023  35.057  -0.796   0.788  34.583
 No NMR shielding tensors so no spin-rotation constants.
 Leave Link  601 at Wed May 11 22:14:57 2022, MaxMem= 67108864000 cpu:               4.5 elap:               0.2
 (Enter /cm/shared/apps/gaussian/intel/EM64T/SSE4_2-enabled/binary//g16/l701.exe)
 ... and contract with generalized density number  2.
 Compute integral second derivatives.
   1 Symmetry operations used in ECPInt.
 ECPInt:  NShTT=    2346 NPrTT=    7709 LenC2=    2209 LenP2D=    5479.
 LDataN:  DoStor=T MaxTD1= 9 Len=  602
 Leave Link  701 at Wed May 11 22:14:59 2022, MaxMem= 67108864000 cpu:              37.5 elap:               1.4
 (Enter /cm/shared/apps/gaussian/intel/EM64T/SSE4_2-enabled/binary//g16/l702.exe)
 L702 exits ... SP integral derivatives will be done elsewhere.
 Leave Link  702 at Wed May 11 22:14:59 2022, MaxMem= 67108864000 cpu:               1.0 elap:               0.1
 (Enter /cm/shared/apps/gaussian/intel/EM64T/SSE4_2-enabled/binary//g16/l703.exe)
 Integral derivatives from FoFJK, PRISM(SPDF).
 Compute integral second derivatives, UseDBF=F ICtDFT=           0.
 Calling FoFJK, ICntrl=  10100127 FMM=F ISym2X=0 I1Cent= 0 IOpClX= 0 NMat=1 NMatS=1 NMatT=0.
 FoFJK:  IHMeth= 1 ICntrl=10100127 DoSepK=F KAlg= 0 I1Cent=           0 FoldK=F
 IRaf=         0 NMat=       1 IRICut=       1 DoRegI=T DoRafI=F ISym2E= 0 IDoP0=0 IntGTp=1.
 FoFCou: FMM=F IPFlag=           0 FMFlag=      100000 FMFlg1=         800
         NFxFlg=           0 DoJE=F BraDBF=F KetDBF=F FulRan=T
         wScrn=  0.000000 ICntrl=  10100127 IOpCl=  0 I1Cent=           0 NGrid=           0
         NMat0=    1 NMatS0=      1 NMatT0=    0 NMatD0=    1 NMtDS0=    0 NMtDT0=    0
 Symmetry not used in FoFCou.
 Leave Link  703 at Wed May 11 22:15:00 2022, MaxMem= 67108864000 cpu:              18.8 elap:               0.7
 (Enter /cm/shared/apps/gaussian/intel/EM64T/SSE4_2-enabled/binary//g16/l716.exe)
 Dipole        = 1.76824169D+00 5.61183446D-01 1.21825957D+00
 Polarizability= 7.89877860D+01-1.25377155D+00 5.29797317D+01
                -2.03020350D+00 3.70730710D-04 4.64882403D+01
 Full mass-weighted force constant matrix:
 Low frequencies --- -366.1374 -362.1118 -328.7109 -185.9245  -93.2627  -78.1765
 Low frequencies ---  -76.0468  -32.5107  -24.3240
 ******    7 imaginary frequencies (negative Signs) ****** 
 Diagonal vibrational polarizability:
      279.1758910     507.8098219     388.5763156
 Harmonic frequencies (cm**-1), IR intensities (KM/Mole), Raman scattering
 activities (A**4/AMU), depolarization ratios for plane and unpolarized
 incident light, reduced masses (AMU), force constants (mDyne/A),
 and normal coordinates:
                      1                      2                      3
                      A                      A                      A
 Frequencies --   -364.8717              -361.8331              -327.6974
 Red. masses --      1.0126                 1.0254                 1.0287
 Frc consts  --      0.0794                 0.0791                 0.0651
 IR Inten    --      4.1460                47.5730                48.1264
  Atom  AN      X      Y      Z        X      Y      Z        X      Y      Z
     1  80     0.00  -0.00   0.00     0.00  -0.00  -0.00     0.00   0.00  -0.00
     2   1    -0.00   0.01  -0.00     0.00   0.00   0.00    -0.00   0.03   0.03
     3   8    -0.00   0.01   0.00    -0.00   0.00   0.00    -0.01   0.00   0.00
     4   1     0.00   0.01   0.01    -0.00  -0.00   0.00    -0.00   0.01   0.02
     5   1    -0.00  -0.02   0.01     0.00   0.00  -0.00     0.01   0.03  -0.02
     6   8    -0.00  -0.00   0.00     0.00  -0.00   0.00     0.00   0.00  -0.01
     7   1     0.00   0.00   0.00    -0.00   0.00   0.00     0.01  -0.01  -0.01
     8   1     0.31   0.16  -0.11    -0.51  -0.28   0.14    -0.01  -0.00   0.02
     9   8     0.00   0.00  -0.00    -0.00   0.00  -0.02     0.00  -0.00   0.01
    10   1    -0.33  -0.15  -0.04     0.55   0.27   0.03     0.01  -0.00   0.02
    11   1     0.02   0.01   0.05     0.01   0.00   0.04    -0.00  -0.00  -0.00
    12   8     0.00  -0.00   0.00     0.00   0.00   0.02     0.00   0.00   0.00
    13   1    -0.01   0.01  -0.03     0.02  -0.00   0.06     0.00  -0.00   0.01
    14   1    -0.01   0.02  -0.02     0.00  -0.00   0.01    -0.33   0.42  -0.45
    15   8     0.00   0.00  -0.00    -0.00   0.00   0.01     0.01  -0.03  -0.02
    16   1     0.01  -0.01   0.02    -0.00   0.00   0.00     0.26  -0.19   0.63
    17   1     0.36  -0.47   0.13     0.21  -0.29   0.07    -0.01   0.00  -0.01
    18   8    -0.00   0.00  -0.01    -0.00  -0.00  -0.02     0.00  -0.00  -0.00
    19   1    -0.31   0.51   0.06    -0.19   0.31   0.03     0.01  -0.01  -0.01
                      4                      5                      6
                      A                      A                      A
 Frequencies --   -181.4133               -91.5175               -74.3519
 Red. masses --      1.3449                 2.8791                 2.6954
 Frc consts  --      0.0261                 0.0142                 0.0088
 IR Inten    --     42.9691                 4.4886                49.7589
  Atom  AN      X      Y      Z        X      Y      Z        X      Y      Z
     1  80    -0.00  -0.01   0.00     0.00   0.00  -0.00    -0.01  -0.00  -0.03
     2   1    -0.01  -0.03   0.03    -0.02   0.09   0.07    -0.00  -0.01   0.07
     3   8     0.00  -0.04   0.03    -0.06   0.21   0.12     0.01  -0.02   0.07
     4   1     0.02  -0.08  -0.04    -0.11   0.30   0.31     0.01  -0.04   0.04
     5   1     0.18   0.87  -0.39     0.08   0.13   0.02     0.05   0.05   0.05
     6   8     0.03   0.11  -0.06     0.02   0.06   0.04     0.01   0.02   0.06
     7   1    -0.01  -0.01   0.04    -0.02   0.12   0.09    -0.01   0.00   0.08
     8   1     0.03  -0.03  -0.08    -0.04   0.04   0.16    -0.07   0.14   0.28
     9   8     0.01  -0.00  -0.04    -0.00  -0.04   0.08     0.02  -0.04   0.09
    10   1    -0.02   0.03  -0.07     0.05  -0.12   0.13     0.17  -0.23   0.23
    11   1    -0.01  -0.02   0.01    -0.01  -0.03  -0.04    -0.02  -0.01  -0.14
    12   8    -0.00  -0.02   0.01    -0.01  -0.03  -0.03    -0.02  -0.02  -0.16
    13   1     0.00  -0.02   0.00    -0.01  -0.03  -0.02    -0.02  -0.02  -0.15
    14   1     0.00  -0.03   0.02     0.37  -0.24  -0.27    -0.03   0.02   0.08
    15   8    -0.01  -0.02   0.00     0.05  -0.18  -0.11    -0.01   0.02   0.07
    16   1    -0.02  -0.02  -0.01    -0.18  -0.44  -0.19     0.01   0.04   0.08
    17   1     0.00   0.01   0.03    -0.03  -0.06  -0.06     0.37   0.25   0.33
    18   8    -0.02   0.01   0.02    -0.01  -0.04  -0.05     0.05   0.07   0.19
    19   1    -0.03   0.01   0.04     0.01  -0.03  -0.08    -0.17  -0.04   0.50
                      7                      8                      9
                      A                      A                      A
 Frequencies --    -30.3699                35.6089                50.2650
 Red. masses --      4.4959                 5.6137                 5.0704
 Frc consts  --      0.0024                 0.0042                 0.0075
 IR Inten    --      9.1710                 3.4702                 0.1473
  Atom  AN      X      Y      Z        X      Y      Z        X      Y      Z
     1  80     0.00  -0.04   0.02    -0.01  -0.04  -0.02    -0.01   0.01  -0.01
     2   1    -0.04   0.08  -0.02     0.01   0.17   0.00    -0.16  -0.01   0.08
     3   8     0.04   0.03   0.05    -0.10   0.24  -0.09    -0.14  -0.02   0.10
     4   1     0.14   0.03   0.01    -0.21   0.29   0.05    -0.11   0.02   0.15
     5   1     0.09   0.14   0.04    -0.07  -0.07  -0.14    -0.01   0.03  -0.04
     6   8     0.02   0.01   0.09    -0.01   0.02  -0.17    -0.03  -0.05  -0.01
     7   1     0.00  -0.01   0.11    -0.01   0.17  -0.20    -0.11  -0.08   0.06
     8   1     0.16   0.20   0.22     0.30   0.02  -0.01     0.33   0.10  -0.08
     9   8     0.20   0.03   0.07     0.22   0.05   0.05     0.26   0.11  -0.03
    10   1     0.34  -0.11   0.18     0.20   0.14   0.01     0.26   0.20  -0.07
    11   1    -0.05   0.04  -0.11    -0.02   0.01   0.16     0.05   0.02   0.06
    12   8     0.00   0.00  -0.10     0.01  -0.02   0.16     0.00   0.05   0.05
    13   1     0.06   0.01  -0.09     0.07  -0.01   0.15     0.05   0.05   0.06
    14   1    -0.18   0.22  -0.17     0.16   0.00   0.29    -0.18   0.02  -0.06
    15   8    -0.14   0.18  -0.14     0.15   0.06   0.21    -0.21   0.01  -0.02
    16   1    -0.12   0.24  -0.18     0.15   0.02   0.26    -0.23   0.01  -0.06
    17   1    -0.22   0.14  -0.17    -0.19   0.07   0.06     0.25  -0.28   0.02
    18   8    -0.17   0.14  -0.14    -0.11   0.07   0.10     0.26  -0.19   0.02
    19   1    -0.15   0.21  -0.19    -0.07   0.11   0.03     0.30  -0.25   0.00
                     10                     11                     12
                      A                      A                      A
 Frequencies --     59.0029               102.5420               127.5670
 Red. masses --      6.0404                 5.5609                 5.4201
 Frc consts  --      0.0124                 0.0345                 0.0520
 IR Inten    --     11.1840                 7.8208                19.0425
  Atom  AN      X      Y      Z        X      Y      Z        X      Y      Z
     1  80    -0.06   0.02   0.03    -0.02  -0.06   0.02    -0.03  -0.02  -0.06
     2   1     0.22  -0.01  -0.11     0.04   0.08  -0.06     0.16   0.01   0.10
     3   8     0.21  -0.02  -0.11     0.02   0.09  -0.07     0.21  -0.03   0.18
     4   1     0.20  -0.12  -0.27     0.02   0.11  -0.04     0.27  -0.08   0.07
     5   1    -0.03  -0.00   0.17     0.04   0.36  -0.20     0.18   0.03   0.25
     6   8    -0.02   0.12   0.12    -0.01  -0.02  -0.03     0.03   0.07   0.21
     7   1     0.12   0.12  -0.00     0.02   0.05  -0.06     0.13   0.05   0.30
     8   1     0.22   0.10  -0.01    -0.23   0.27   0.16     0.05  -0.09  -0.14
     9   8     0.22  -0.01  -0.08    -0.14   0.20   0.05    -0.04   0.11   0.06
    10   1     0.33  -0.03  -0.04    -0.10   0.04   0.13    -0.21   0.29  -0.08
    11   1    -0.07  -0.09  -0.13     0.03   0.27  -0.13     0.03   0.08   0.26
    12   8    -0.10  -0.07  -0.14     0.05   0.25  -0.12     0.02   0.08   0.25
    13   1    -0.07  -0.07  -0.14     0.07   0.26  -0.11     0.05   0.08   0.27
    14   1     0.20  -0.01   0.04     0.11   0.02   0.05     0.06   0.08  -0.08
    15   8     0.26  -0.02   0.00     0.10   0.04   0.02     0.06   0.04  -0.02
    16   1     0.30   0.00   0.06     0.09   0.02   0.04     0.05   0.06  -0.06
    17   1     0.12  -0.19  -0.04     0.30   0.02  -0.09    -0.21  -0.11  -0.03
    18   8     0.04  -0.17  -0.07     0.25   0.08  -0.11     0.00  -0.00   0.07
    19   1     0.01  -0.21  -0.02     0.24   0.02  -0.07     0.16   0.05  -0.13
                     13                     14                     15
                      A                      A                      A
 Frequencies --    224.2926               275.7694               278.0421
 Red. masses --      3.3517                 3.9734                 1.1326
 Frc consts  --      0.0993                 0.1780                 0.0516
 IR Inten    --     88.9065                66.6925                 1.3427
  Atom  AN      X      Y      Z        X      Y      Z        X      Y      Z
     1  80     0.00  -0.02   0.01     0.02  -0.00   0.00     0.00  -0.00   0.00
     2   1    -0.02  -0.05   0.06     0.13  -0.02   0.06     0.01   0.02   0.01
     3   8    -0.04  -0.05   0.00     0.09  -0.01   0.09     0.01   0.01   0.01
     4   1    -0.13  -0.20  -0.21     0.05   0.07   0.25     0.01   0.02   0.03
     5   1    -0.09  -0.72   0.39    -0.11  -0.21  -0.10    -0.01  -0.03  -0.00
     6   8     0.07   0.35  -0.08     0.03  -0.01  -0.16     0.00  -0.01  -0.01
     7   1    -0.05   0.18  -0.06     0.18  -0.09   0.01     0.02  -0.00   0.00
     8   1    -0.00  -0.01  -0.03    -0.15   0.52   0.22     0.11  -0.35  -0.27
     9   8    -0.01   0.01  -0.02    -0.06   0.26  -0.02     0.01   0.02   0.05
    10   1    -0.01   0.03  -0.03     0.07  -0.03   0.15    -0.17   0.41  -0.18
    11   1     0.00   0.04  -0.01    -0.08   0.03  -0.07    -0.06  -0.05  -0.24
    12   8     0.02   0.02  -0.01    -0.08   0.01  -0.05    -0.00   0.02  -0.02
    13   1     0.03   0.03  -0.01    -0.11   0.00  -0.19     0.03  -0.03   0.23
    14   1    -0.06  -0.01  -0.04    -0.02   0.04  -0.05     0.02   0.01  -0.04
    15   8    -0.07  -0.04   0.00    -0.01   0.00  -0.00    -0.00   0.00  -0.01
    16   1    -0.08  -0.04  -0.01    -0.02   0.05  -0.07    -0.01  -0.01  -0.02
    17   1     0.04   0.05  -0.01    -0.09  -0.13   0.10     0.33   0.28   0.11
    18   8     0.03   0.04  -0.01    -0.17  -0.19   0.06    -0.03  -0.02  -0.05
    19   1     0.03   0.04  -0.00    -0.24  -0.22   0.15    -0.28  -0.21   0.33
                     16                     17                     18
                      A                      A                      A
 Frequencies --    298.2955               326.1895               364.1480
 Red. masses --      4.0045                 1.1398                 1.6752
 Frc consts  --      0.2099                 0.0715                 0.1309
 IR Inten    --     43.4825                68.3257                33.5588
  Atom  AN      X      Y      Z        X      Y      Z        X      Y      Z
     1  80     0.03  -0.01  -0.01    -0.00   0.00   0.00    -0.01   0.00  -0.00
     2   1    -0.22   0.03  -0.13    -0.11   0.27   0.20     0.01  -0.02  -0.01
     3   8    -0.18   0.01  -0.19    -0.02  -0.02   0.03     0.00   0.00   0.00
     4   1    -0.12  -0.15  -0.48     0.16  -0.28  -0.45    -0.00   0.01   0.01
     5   1     0.24   0.30   0.19    -0.02  -0.04  -0.02     0.00  -0.00   0.01
     6   8     0.02   0.05   0.27    -0.01  -0.03  -0.03    -0.01   0.00   0.01
     7   1    -0.32   0.17  -0.06    -0.02   0.08   0.01    -0.00   0.00   0.01
     8   1    -0.06   0.19   0.05    -0.00   0.03   0.01    -0.06   0.36   0.23
     9   8    -0.03   0.15   0.01     0.00   0.00  -0.01    -0.00  -0.03  -0.08
    10   1    -0.03   0.10   0.04     0.01  -0.02   0.00     0.18  -0.42   0.15
    11   1    -0.03  -0.01  -0.04    -0.00   0.00  -0.00    -0.06  -0.04  -0.15
    12   8    -0.01  -0.00   0.01     0.00   0.00   0.00     0.06   0.00   0.16
    13   1    -0.02  -0.01  -0.01    -0.00   0.01  -0.02    -0.04   0.03  -0.13
    14   1    -0.02  -0.09   0.12     0.46   0.05  -0.31    -0.03  -0.00   0.01
    15   8    -0.02  -0.02   0.01     0.02   0.06   0.02     0.00  -0.00  -0.01
    16   1     0.01  -0.08   0.13    -0.28  -0.39   0.02     0.02   0.03  -0.01
    17   1    -0.03  -0.04   0.05     0.01   0.01   0.01     0.39   0.32   0.08
    18   8    -0.09  -0.11   0.02    -0.00   0.00   0.00     0.01   0.01  -0.09
    19   1    -0.15  -0.14   0.10    -0.01  -0.01   0.01    -0.24  -0.25   0.32
                     19                     20                     21
                      A                      A                      A
 Frequencies --    412.6764               448.9414               480.0021
 Red. masses --      4.8418                 3.6300                 1.3540
 Frc consts  --      0.4858                 0.4311                 0.1838
 IR Inten    --    109.8870               345.3010                39.6847
  Atom  AN      X      Y      Z        X      Y      Z        X      Y      Z
     1  80     0.00  -0.00  -0.00    -0.00  -0.00   0.00    -0.00  -0.00  -0.00
     2   1    -0.01  -0.01  -0.00    -0.33  -0.30   0.23    -0.05   0.13  -0.01
     3   8    -0.01  -0.00  -0.00    -0.22  -0.14   0.10     0.02  -0.06  -0.10
     4   1    -0.01  -0.01  -0.01    -0.28   0.05   0.44     0.11   0.40   0.59
     5   1     0.02   0.04  -0.01     0.03  -0.07   0.04    -0.01   0.01   0.04
     6   8     0.00   0.02   0.00     0.03   0.02  -0.00     0.02   0.04   0.03
     7   1    -0.01   0.01   0.00    -0.17  -0.23  -0.04     0.04  -0.39  -0.04
     8   1     0.05  -0.20  -0.03     0.01   0.02  -0.00     0.00   0.01  -0.00
     9   8     0.05  -0.22  -0.04    -0.01   0.01   0.00    -0.00  -0.00  -0.01
    10   1     0.06  -0.27  -0.01     0.01   0.02  -0.00     0.01  -0.00  -0.00
    11   1     0.11   0.47  -0.11    -0.01  -0.01   0.00    -0.00   0.00   0.00
    12   8     0.09   0.38  -0.04    -0.00  -0.00  -0.00     0.00   0.00   0.00
    13   1     0.13   0.47   0.01    -0.00   0.00  -0.00     0.00   0.00  -0.00
    14   1    -0.01  -0.00   0.02     0.22   0.08  -0.02     0.29   0.04  -0.21
    15   8     0.00   0.00  -0.00     0.24   0.14  -0.14    -0.03   0.03   0.05
    16   1     0.02   0.01   0.01     0.33   0.20  -0.06    -0.27  -0.30   0.04
    17   1    -0.19  -0.21   0.06    -0.01  -0.00   0.00     0.00   0.01   0.00
    18   8    -0.15  -0.16   0.08    -0.00  -0.01   0.00     0.00   0.00   0.00
    19   1    -0.15  -0.16   0.07    -0.01   0.00   0.00    -0.00   0.00   0.01
                     22                     23                     24
                      A                      A                      A
 Frequencies --    586.8982               590.8857               606.5870
 Red. masses --      1.0760                 1.1582                 2.2798
 Frc consts  --      0.2184                 0.2383                 0.4942
 IR Inten    --     82.0235               724.9410                39.3880
  Atom  AN      X      Y      Z        X      Y      Z        X      Y      Z
     1  80    -0.00  -0.00   0.00    -0.00  -0.00  -0.00    -0.00   0.00   0.00
     2   1    -0.23   0.15  -0.27     0.07  -0.05   0.08     0.01   0.01  -0.02
     3   8    -0.01   0.01   0.03     0.01  -0.00  -0.01     0.00  -0.01   0.01
     4   1     0.53   0.08  -0.09    -0.16  -0.03   0.02     0.02   0.02   0.04
     5   1     0.01  -0.07   0.02    -0.01   0.03  -0.01    -0.13   0.03   0.01
     6   8     0.00   0.01  -0.03    -0.00  -0.00   0.01    -0.16   0.04   0.00
     7   1    -0.13  -0.27   0.23     0.04   0.09  -0.07    -0.01  -0.01   0.06
     8   1     0.10   0.09  -0.01     0.34   0.29  -0.04    -0.39  -0.30   0.05
     9   8    -0.02  -0.01   0.00    -0.05  -0.03   0.01     0.05   0.07   0.00
    10   1     0.10   0.09  -0.00     0.33   0.28  -0.02    -0.39  -0.28   0.02
    11   1     0.02  -0.01  -0.00     0.07  -0.05  -0.00     0.20  -0.05  -0.04
    12   8     0.00   0.00  -0.00     0.01   0.01  -0.00     0.20  -0.05  -0.03
    13   1    -0.02  -0.00   0.00    -0.07  -0.01   0.01     0.20  -0.06  -0.04
    14   1    -0.02  -0.25   0.38     0.00   0.07  -0.11     0.01   0.02  -0.02
    15   8    -0.00   0.01  -0.04    -0.00  -0.00   0.01     0.01   0.01  -0.00
    16   1     0.11  -0.14   0.32    -0.03   0.04  -0.09     0.00   0.01  -0.02
    17   1    -0.05   0.12  -0.02    -0.18   0.46  -0.07    -0.18   0.35  -0.05
    18   8     0.01  -0.02   0.00     0.03  -0.06   0.01     0.01  -0.08   0.02
    19   1    -0.05   0.13  -0.01    -0.18   0.47  -0.04    -0.17   0.37  -0.03
                     25                     26                     27
                      A                      A                      A
 Frequencies --    643.4502               685.8374               692.2671
 Red. masses --      2.0329                 4.4446                 1.2766
 Frc consts  --      0.4959                 1.2317                 0.3604
 IR Inten    --    351.8792                32.6898               333.2225
  Atom  AN      X      Y      Z        X      Y      Z        X      Y      Z
     1  80    -0.01   0.00   0.00    -0.04   0.01   0.00     0.01  -0.00  -0.00
     2   1    -0.02  -0.01   0.02     0.07  -0.07   0.10     0.18  -0.09   0.11
     3   8    -0.00   0.01  -0.01     0.02   0.00  -0.01     0.04  -0.02   0.00
     4   1    -0.02  -0.01  -0.04    -0.25  -0.05   0.02    -0.45  -0.06   0.14
     5   1     0.16  -0.04  -0.02     0.21  -0.05  -0.03    -0.07   0.03  -0.01
     6   8     0.21  -0.05  -0.00     0.28  -0.07  -0.01    -0.06   0.00   0.01
     7   1     0.02  -0.00  -0.07     0.09   0.11  -0.18     0.11   0.24  -0.12
     8   1    -0.37  -0.29   0.06     0.17   0.15  -0.04    -0.03  -0.02   0.01
     9   8     0.06   0.02  -0.01    -0.04   0.03   0.02     0.01  -0.00  -0.00
    10   1    -0.35  -0.36   0.03     0.15   0.25  -0.02    -0.02  -0.04   0.00
    11   1    -0.05  -0.03   0.04     0.22  -0.02  -0.08    -0.03   0.01   0.01
    12   8    -0.10   0.03   0.02     0.32  -0.09  -0.05    -0.05   0.01   0.01
    13   1    -0.01   0.06   0.03     0.20  -0.10  -0.07    -0.03   0.01   0.01
    14   1    -0.01  -0.04   0.04     0.07  -0.19   0.23     0.16  -0.31   0.37
    15   8    -0.01  -0.00  -0.00    -0.04   0.02  -0.03    -0.04   0.06  -0.06
    16   1    -0.00  -0.02   0.04    -0.01  -0.21   0.28    -0.00  -0.36   0.47
    17   1    -0.12   0.45  -0.06     0.01  -0.29   0.04     0.00   0.03  -0.00
    18   8     0.04  -0.05  -0.01    -0.05  -0.00   0.02     0.01   0.00  -0.00
    19   1    -0.17   0.40  -0.02     0.08  -0.22  -0.00    -0.01   0.02   0.00
                     28                     29                     30
                      A                      A                      A
 Frequencies --    996.2056              1196.6402              1214.8986
 Red. masses --      1.0891                 1.0481                 1.0535
 Frc consts  --      0.6368                 0.8843                 0.9161
 IR Inten    --     32.8638                81.0566               106.1387
  Atom  AN      X      Y      Z        X      Y      Z        X      Y      Z
     1  80    -0.00   0.00   0.00    -0.00  -0.00   0.00    -0.00   0.00   0.00
     2   1    -0.01  -0.06  -0.12     0.00   0.01   0.02     0.03   0.13   0.34
     3   8     0.02  -0.02  -0.02    -0.00   0.00   0.00    -0.01   0.02   0.01
     4   1    -0.10   0.04   0.11     0.01  -0.00  -0.00     0.13  -0.02  -0.09
     5   1     0.78  -0.10   0.15     0.02  -0.00   0.01     0.56  -0.04   0.13
     6   8    -0.03  -0.02  -0.05    -0.00   0.00   0.00    -0.04   0.01  -0.00
     7   1    -0.31   0.26   0.37     0.02  -0.02  -0.03     0.36  -0.32  -0.50
     8   1    -0.00  -0.00   0.00    -0.03   0.11   0.07     0.00  -0.01  -0.00
     9   8     0.00  -0.00  -0.00     0.00   0.01  -0.03    -0.00  -0.00   0.00
    10   1     0.00  -0.00  -0.00     0.00  -0.13   0.04    -0.00   0.00  -0.00
    11   1     0.00  -0.01  -0.00     0.19  -0.39  -0.50     0.00   0.01   0.04
    12   8    -0.00  -0.00  -0.00     0.01   0.03  -0.01    -0.00  -0.00  -0.00
    13   1    -0.01  -0.00  -0.00    -0.30  -0.15   0.61     0.01   0.01  -0.03
    14   1     0.04   0.03  -0.06    -0.00  -0.00   0.00    -0.05  -0.05   0.09
    15   8     0.00   0.01   0.01    -0.00  -0.00  -0.00    -0.01  -0.02  -0.01
    16   1    -0.04  -0.04  -0.01     0.00   0.00   0.00     0.07   0.07   0.01
    17   1     0.00  -0.00   0.00    -0.06  -0.11  -0.01     0.01   0.01   0.00
    18   8    -0.00  -0.00   0.00    -0.00   0.01   0.02    -0.00  -0.00  -0.00
    19   1    -0.00   0.00   0.00     0.07   0.06  -0.08    -0.00  -0.01   0.00
                     31                     32                     33
                      A                      A                      A
 Frequencies --   1272.4429              1317.4712              1461.9360
 Red. masses --      1.0401                 1.0631                 1.0799
 Frc consts  --      0.9922                 1.0872                 1.3598
 IR Inten    --      5.0062               333.4873              1112.5015
  Atom  AN      X      Y      Z        X      Y      Z        X      Y      Z
     1  80     0.00   0.00  -0.00    -0.00   0.00   0.00     0.00  -0.00  -0.00
     2   1    -0.00  -0.00   0.00     0.01  -0.00  -0.01    -0.47   0.17   0.65
     3   8     0.00   0.00   0.00    -0.00  -0.00   0.00     0.04  -0.01  -0.04
     4   1     0.00  -0.00  -0.00    -0.00  -0.00   0.00     0.18   0.16   0.13
     5   1     0.01  -0.01   0.00    -0.01   0.00  -0.00    -0.11   0.01  -0.03
     6   8    -0.00  -0.00  -0.00    -0.00   0.00   0.00    -0.00  -0.01  -0.00
     7   1     0.00  -0.00  -0.00    -0.01   0.00   0.01    -0.12   0.38   0.07
     8   1     0.03   0.10   0.02     0.02   0.12   0.04    -0.00   0.00   0.00
     9   8    -0.02  -0.00  -0.02    -0.01   0.00  -0.02    -0.00   0.00   0.00
    10   1     0.05  -0.08   0.04     0.04  -0.11   0.04     0.00  -0.00   0.00
    11   1    -0.52   0.25  -0.29     0.37  -0.04   0.64     0.00  -0.01   0.01
    12   8    -0.01  -0.03  -0.00    -0.02   0.00  -0.04    -0.00   0.00  -0.00
    13   1     0.65   0.03   0.36     0.30   0.00   0.53     0.00   0.01   0.01
    14   1     0.00  -0.00   0.00     0.00   0.00  -0.00     0.02  -0.08   0.05
    15   8    -0.00  -0.00   0.00     0.00   0.00   0.00    -0.02  -0.03  -0.01
    16   1     0.00   0.00   0.00    -0.00  -0.00   0.00     0.17   0.19   0.04
    17   1    -0.07  -0.03  -0.02     0.11   0.10   0.03     0.00   0.00   0.00
    18   8     0.01  -0.01   0.01    -0.01  -0.00  -0.03    -0.00  -0.00  -0.00
    19   1     0.01   0.07  -0.03    -0.05  -0.12   0.08    -0.00  -0.00   0.00
                     34                     35                     36
                      A                      A                      A
 Frequencies --   1578.4072              1706.8776              1736.4290
 Red. masses --      1.0808                 1.0776                 1.0939
 Frc consts  --      1.5865                 1.8497                 1.9433
 IR Inten    --   1379.7937                97.1054                24.7582
[...]
 ,0.00075614,-0.00057826,0.00063012,-0.00531836,-0.01047101,-0.00016445
 ,-0.04222029,-0.13900949,-0.09183592,0.05843021,0.17406252,0.09791727,
 -0.00546498,0.01443064,-0.01518253,0.00067961,0.00031783,0.00146311,-0
 .00478775,0.00303823,0.00130788,0.00015136,0.00010435,0.00028212,0.022
 50860,0.00777424,-0.01215477,0.01790169,0.00005805,0.00036365,-0.00031
 700,0.00292341,-0.00256074,-0.00112863,0.00018282,0.00027541,-0.000768
 38,-0.02776388,0.08527452,0.00406737,-0.00376038,-0.00028483,-0.000326
 27,-0.00012532,-0.00071600,0.00253694,-0.00201660,-0.00018926,0.000384
 46,0.00024478,-0.00042446,0.01193019,-0.16314030,0.43190459,-0.1088591
 4,0.10040425,0.00586554,0.00763625,-0.00009695,0.00232752,-0.01966688,
 0.01553473,0.02420773,-0.00412464,-0.00038949,0.00030182,-0.01920707,0
 .01886326,-0.01516822,0.14343626,0.10664086,-0.13291389,-0.00023560,-0
 .00661879,-0.00141135,-0.00268176,0.01893669,-0.00106726,-0.01589008,-
 0.00011189,0.00084596,0.00211853,0.01450522,-0.07690980,0.16495375,-0.
 12903820,0.21809115,-0.01399558,0.02158861,-0.02798849,-0.00547636,-0.
 00124607,-0.00434454,0.02410010,-0.01308296,-0.00941229,0.00086659,0.0
 0054233,-0.00058848,-0.00449572,0.14965629,-0.42900135,0.00357360,-0.1
 6427578,0.47433670,-0.00383012,0.00617264,-0.00414101,-0.01667866,0.00
 766181,0.01521714,-0.16158696,0.05741512,0.09021684,0.01864580,-0.0116
 5436,-0.01199687,0.00727408,-0.00314860,-0.00527712,-0.00327300,-0.007
 36245,-0.00628169,0.15498466,0.00450838,-0.00474504,0.00033818,0.01303
 239,0.00474298,0.00595817,0.02447088,-0.08403194,-0.05767771,0.0227470
 1,-0.01287517,-0.02664390,-0.00555103,0.00527722,0.00528049,-0.0061931
 0,-0.01306420,0.00672815,-0.04663085,0.10394698,0.00068653,-0.00446436
 ,0.00733508,0.01062238,0.00908052,0.01852837,0.08250010,-0.08512753,-0
 .14549005,0.01050043,-0.00247592,-0.00565010,0.00350751,-0.00063183,-0
 .00155459,-0.01752135,0.01357004,-0.01308616,-0.07801978,0.06851529,0.
 14591747,0.00078167,0.00003286,0.00039786,0.00010757,0.00005194,0.0000
 3078,-0.00011936,-0.00002494,0.00002355,0.00002232,0.00001039,0.000010
 39,0.00002386,0.00005745,0.00004221,-0.00023791,-0.00000736,-0.0001087
 8,0.00012335,0.00001422,-0.00006385,0.00554242,-0.00004161,-0.00050863
 ,-0.00028131,0.00014992,-0.00001841,0.00002005,-0.00017370,0.00008191,
 0.00008692,0.00001130,-0.00002617,-0.00002534,-0.00000278,-0.00004367,
 0.00004932,-0.00014400,0.00019753,0.00003253,0.00018376,-0.00012416,-0
 .00016719,-0.01241544,0.29198504,0.00045385,-0.00015422,0.00055899,0.0
 0008348,-0.00000971,0.00004396,-0.00006893,0.00004259,-0.00003357,0.00
 000987,-0.00002016,0.00002003,-0.00000340,0.00003434,0.00006174,-0.000
 14301,0.00007617,-0.00008201,0.00003940,-0.00003900,0.00000269,-0.0066
 9213,0.22690439,0.27592357,-0.00523440,0.00010236,0.00015558,-0.000449
 26,-0.00014017,-0.00006511,0.00062200,-0.00003640,-0.00038393,-0.00005
 999,-0.00000488,0.00005294,-0.00002278,-0.00002513,-0.00022630,0.00139
 626,-0.00042761,-0.00001491,-0.00075353,0.00016837,0.00065898,-0.01480
 332,0.00779549,0.00430240,0.05151911,-0.00615918,0.00451478,-0.0005106
 3,-0.00102682,0.00002014,-0.00017319,0.00126524,-0.00049264,-0.0006577
 8,-0.00008089,0.00014982,0.00014709,-0.00000477,0.00011117,-0.00051678
 ,0.00197742,-0.00141563,-0.00009091,-0.00138988,0.00079445,0.00124454,
 0.02029845,-0.29866497,-0.18515410,-0.02484237,0.47375557,0.00164528,-
 0.00094423,-0.00124136,0.00015749,0.00002611,-0.00004060,-0.00030952,0
 .00006495,0.00037562,-0.00000134,0.00000682,-0.00011003,-0.00002180,-0
 .00009827,0.00009212,-0.00065317,0.00045509,0.00015269,0.00046806,-0.0
 0020005,-0.00054036,0.01737121,-0.24344495,-0.24821261,0.04697986,0.04
 826340,0.68373689,0.00069162,-0.00014729,-0.00016938,0.00004767,0.0000
 6818,-0.00001232,-0.00009123,-0.00006956,0.00009081,0.00001969,0.00003
 120,-0.00000888,0.00002007,0.00001164,0.00001596,-0.00021322,0.0000284
 2,0.00003034,0.00013452,0.00003757,-0.00012089,0.00756274,0.00279577,0
 .00254017,-0.02276821,0.02422998,-0.06891975,0.01337046,-0.00017313,-0
 .00020113,0.00078156,0.00016301,-0.00002691,0.00005191,-0.00013454,0.0
 0008675,-0.00004865,0.00002265,-0.00004084,0.00001792,-0.00000015,0.00
 000473,0.00004948,0.00000667,0.00005784,-0.00009495,0.00006925,-0.0000
 8797,0.00000203,-0.00382164,0.01057509,-0.04250571,0.02566387,-0.12892
 103,0.18776534,-0.02460943,0.11811204,-0.00042961,0.00046905,0.0002518
 6,-0.00005236,-0.00000567,0.00002438,0.00011586,-0.00003080,-0.0001681
 8,0.00000388,-0.00000501,0.00005598,0.00000326,0.00003384,-0.00004333,
 0.00024328,-0.00021250,-0.00007424,-0.00018660,0.00009489,0.00022431,-
 0.00792287,0.02339285,-0.03232651,-0.05349562,0.12839832,-0.41075457,0
 .06214143,-0.15331849,0.44239976,-0.01143422,0.01414272,-0.00367762,-0
 .00165237,0.00018638,-0.00026232,0.00221771,-0.00114485,-0.00137938,-0
 .00000065,0.00036795,0.00035309,0.00039891,0.00034728,-0.00100855,0.00
 342979,-0.00465501,0.00030375,-0.00265529,0.00173917,0.00244544,0.0005
 9049,-0.00009889,-0.00021796,0.00130633,0.00747735,-0.00213197,0.00061
 655,0.00021815,0.00026301,0.19008789,0.01754147,0.00414618,0.00236293,
 -0.00039613,0.00005468,-0.00006286,0.00062520,-0.00031588,-0.00047318,
 0.00004626,0.00010049,0.00013296,0.00025576,-0.00016589,-0.00036476,-0
 .00005150,-0.00250136,-0.00013139,-0.00085472,0.00045458,0.00084999,-0
 .00051782,-0.00056922,0.00007513,0.00066219,-0.00327493,0.00175566,-0.
 00073833,-0.00084443,0.00028099,0.02328195,0.08546079,0.00148268,0.000
 51044,0.00095556,-0.00017903,0.00002117,0.00000850,0.00027945,-0.00015
 003,-0.00031398,0.00002809,0.00002590,0.00011017,0.00000467,-0.0002038
 1,-0.00011629,0.00031234,-0.00076641,0.00058635,-0.00043022,0.00032943
 ,0.00049426,-0.00022082,0.00007267,0.00020352,0.00018893,0.00286800,-0
 .00164070,0.00060317,0.00095378,0.00014240,0.02951011,-0.00198861,0.06
 476434,-0.10843868,0.07866115,-0.00041191,0.00158937,-0.00014634,0.000
 28979,-0.00209901,0.00088956,0.00118734,0.00000129,-0.00034559,-0.0003
 9694,-0.00081939,0.00073638,0.00186676,0.00733746,0.00251014,-0.002181
 30,0.00270567,-0.00136186,-0.00211526,-0.00160030,-0.00169568,0.001695
 94,0.00423443,-0.02051767,0.00720132,-0.00199088,-0.00322491,-0.000785
 94,-0.19761317,-0.02844921,-0.05258543,0.44769733,0.07839703,-0.126566
 05,0.00343323,-0.00227393,-0.00004798,-0.00039826,0.00289198,-0.001177
 73,-0.00185984,-0.00005206,0.00030320,0.00035290,0.00066701,0.00070616
 ,-0.00179636,0.00333311,0.00563852,0.00040938,-0.00336836,0.00204688,0
 .00347630,-0.00091556,-0.00151768,0.00500639,-0.02196581,-0.04732044,0
 .01789040,-0.00283777,-0.00556685,-0.00403148,-0.03870695,-0.07594413,
 -0.00227977,0.04325266,0.43029841,-0.00856853,0.01231782,-0.01707908,0
 .00067794,0.00003463,0.00008649,-0.00123215,0.00044066,0.00112335,-0.0
 0005926,-0.00006930,-0.00026189,0.00147672,-0.00142868,0.00019380,-0.0
 0380764,0.00239424,0.00785000,0.00179283,-0.00074026,-0.00193324,0.001
 67365,0.00285952,-0.00387135,0.00661383,0.01646978,0.00829728,-0.00043
 573,-0.00121884,0.00082816,-0.03337007,0.00627492,-0.04500223,0.042476
 96,-0.08457929,0.09509825,0.00741943,0.01495982,-0.00365394,0.00083581
 ,0.00007234,0.00012447,-0.00118078,0.00037317,0.00080747,0.00004919,-0
 .00008298,-0.00014535,-0.00005369,-0.00015051,0.00041842,-0.00338078,0
 .00086816,0.00066185,0.00141888,-0.00065591,-0.00144593,0.00243810,0.0
 0375560,-0.00212243,-0.01502767,0.00215293,-0.00320256,0.00319651,0.00
 635647,0.00027297,0.00228929,-0.02240449,0.01250978,-0.08571875,-0.040
 01216,0.00496881,0.09240622,0.01160509,-0.01511389,0.00416465,0.001868
 51,0.00002050,0.00029643,-0.00239632,0.00086025,0.00134359,0.00014980,
 -0.00024746,-0.00030454,0.00008734,-0.00009580,0.00100255,-0.00400501,
 0.00350484,-0.00022761,0.00273277,-0.00146400,-0.00241367,-0.00275463,
 -0.00143385,-0.00428832,0.01325042,0.00139867,-0.01175947,0.00123421,0
 .00683249,0.00502988,-0.01311349,0.00560821,-0.00108441,-0.05082933,-0
 .18668535,0.05100887,0.03465598,0.18524056,-0.00199763,-0.00133578,0.0
 0121453,-0.00043131,-0.00002456,-0.00001496,0.00063818,-0.00019110,-0.
 00054158,-0.00002564,0.00003307,0.00014708,0.00016626,0.00004320,-0.00
 017180,0.00160742,-0.00082876,0.00037919,-0.00085371,0.00040560,0.0008
 6630,-0.00449246,-0.00946808,0.00768167,-0.00480664,-0.00965555,-0.030
 42585,0.00440164,0.00777365,-0.00057330,0.00099475,-0.01060279,0.00588
 546,0.01647449,0.06805467,-0.05410756,-0.00746935,-0.04395107,0.070528
 53,-0.00027372,0.00021890,0.00001818,-0.00132373,-0.00607433,0.0149959
 5,-0.00287353,0.00063673,-0.00408957,-0.00077098,0.00011734,0.00010379
 ,-0.00001480,-0.00002381,-0.00003184,0.00041206,-0.00015556,-0.0001710
 8,-0.00062648,0.00022386,0.00048051,-0.00000228,0.00001877,0.00001041,
 0.00000204,-0.00008724,-0.00000092,-0.00001454,0.00002457,0.00000137,-
 0.00015754,-0.00003888,-0.00001527,0.00014487,-0.00015213,0.00003385,0
 .00004135,0.00014083,-0.00002288,0.24883957,0.00009095,0.00030654,-0.0
 0010177,-0.00614765,0.00349318,-0.00211433,0.00396672,-0.00163743,0.00
 112244,-0.00061990,0.00007914,0.00009872,0.00000357,0.00013112,-0.0000
 1445,0.00032793,-0.00064036,-0.00027194,-0.00069726,0.00122982,0.00055
 525,0.00005759,-0.00000241,-0.00000306,-0.00014866,-0.00006281,0.00002
 901,0.00006349,-0.00000485,-0.00000590,0.00004317,0.00001969,0.0000038
 8,-0.00003916,-0.00016674,0.00004741,0.00010942,0.00014708,-0.00004633
 ,0.10851570,0.10723453,0.00017489,-0.00009607,0.00013434,0.00277067,-0
 .00459094,0.00838249,-0.00548729,0.00163649,-0.00386976,-0.00039136,-0
 .00014094,0.00063024,0.00012905,0.00004188,0.00004042,-0.00019611,-0.0
 0002024,-0.00014861,-0.00005632,0.00014788,0.00015515,0.00001752,-0.00
 000900,0.00001984,-0.00000626,0.00002465,-0.00004992,-0.00000490,0.000
 00849,0.00002684,0.00008155,0.00002689,0.00003031,-0.00007313,0.000057
 42,-0.00006300,-0.00001989,-0.00005357,0.00004322,-0.19844620,-0.13891
 933,0.21762154,0.00145537,-0.00213478,0.00031113,0.00413439,-0.0118223
 2,0.00454078,-0.07377897,0.00575278,-0.01937366,-0.00422060,0.00399812
 ,0.00094494,-0.00028480,0.00007359,0.00029799,-0.00389142,0.00328359,0
 .00298022,0.00376435,-0.00642470,-0.01054999,-0.00005367,-0.00008392,-
 0.00004363,0.00022798,0.00054620,-0.00008288,-0.00002087,-0.00008952,0
 .00002737,0.00088997,0.00022040,0.00009978,-0.00084330,0.00119266,-0.0
 0035898,-0.00043862,-0.00099889,0.00023239,-0.25599226,-0.07562516,0.1
 7909645,0.45871266,-0.00039346,-0.00024775,0.00006667,-0.00289624,-0.0
 3713484,0.01097206,0.00325073,0.01573107,0.00085233,0.00425135,-0.0007
 1147,0.00108607,-0.00016001,-0.00035425,-0.00001022,-0.00006468,0.0009
 7328,0.00048478,0.00060024,-0.00194281,-0.00166866,-0.00007876,0.00001
 507,-0.00000419,0.00018108,0.00003460,-0.00000863,-0.00007671,0.000010
 78,-0.00000524,-0.00016498,-0.00005704,-0.00002539,0.00014236,0.000122
 73,-0.00001562,-0.00010914,-0.00010331,0.00002616,-0.12006170,-0.09670
 891,0.13551446,-0.04155840,0.44356047,0.00006805,-0.00036642,-0.000190
 33,0.01764343,0.00912230,-0.03269789,-0.02417471,0.00052990,0.01052472
 ,0.00000962,0.00094004,-0.00055698,-0.00083772,0.00003117,0.00008101,-
 0.00102423,0.00129623,0.00207889,0.00018777,-0.00284831,-0.00627205,-0
 .00003607,-0.00000437,-0.00004883,0.00005184,0.00010144,0.00006720,0.0
 0001021,-0.00003906,-0.00003665,0.00010509,0.00001394,-0.00003051,-0.0
 0012510,0.00022690,0.00001090,-0.00007368,-0.00016351,-0.00002183,0.20
 111593,0.10739841,-0.21267309,-0.10913641,-0.30369512,0.35341288,-0.00
 017590,0.00028621,-0.00010342,0.00930153,0.01468449,-0.00325569,-0.006
 74956,-0.00338723,-0.00070558,-0.00180366,0.00071184,-0.00098967,-0.00
 023640,0.00016679,0.00002222,0.00028791,-0.00033908,0.00019696,-0.0007
 2796,0.00054878,-0.00052403,0.00000653,0.00001472,0.00000280,-0.000033
 34,-0.00008131,0.00001973,0.00000418,0.00001214,-0.00000654,-0.0001191
 6,-0.00002725,-0.00001990,0.00010624,-0.00016498,0.00005829,0.00006661
 ,0.00014930,-0.00004245,0.01255431,-0.02988765,0.02244645,-0.12932817,
 0.15708081,-0.08375178,0.11680367,0.00022138,-0.00006881,0.00004508,0.
 00539568,0.00274418,-0.00110313,-0.00555111,-0.00022210,-0.00085308,-0
 .00052945,0.00030373,-0.00017583,0.00015158,0.00013540,0.00004027,-0.0
 0030772,-0.00004999,-0.00000896,-0.00002025,0.00001333,-0.00005739,0.0
 0002793,-0.00001034,0.00000322,-0.00004844,0.00002168,-0.00001095,0.00
 002503,-0.00000622,0.00000630,0.00013167,0.00004151,0.00002069,-0.0001
 1772,0.00004145,-0.00003160,0.00000477,-0.00002837,0.00001286,0.016678
 71,-0.01341448,0.00638018,0.12376692,-0.32320351,0.18746866,-0.1397807
 1,0.33371517,-0.00000549,0.00004156,0.00013909,-0.00436806,0.00358759,
 -0.00019756,0.00192030,-0.00084493,-0.00015838,-0.00095226,0.00014301,
 0.00010112,0.00028261,-0.00004346,0.00005564,0.00022418,-0.00023930,-0
 .00058962,-0.00083182,0.00045677,0.00116804,0.00000716,-0.00000104,0.0
 0002291,0.00000339,-0.00001634,-0.00003937,-0.00001229,0.00001448,0.00
 001996,-0.00001786,-0.00000055,0.00002089,0.00002568,-0.00003653,-0.00
 003380,0.00000342,0.00001817,0.00002629,-0.01399141,0.03222336,-0.0102
 7846,-0.04893705,0.15642456,-0.11363457,0.06664620,-0.19172982,0.12337
 295,-0.00031767,-0.00008218,-0.00068304,-0.00014103,0.00001689,-0.0000
 3749,0.00013915,-0.00006791,0.00000711,-0.00002766,0.00003803,-0.00001
 168,0.00001469,0.00001886,-0.00005082,0.00008947,-0.00004469,0.0000765
 2,-0.00010478,0.00007645,0.00004192,-0.00009361,-0.00005189,-0.0000940
 1,0.00034321,-0.00015957,0.00039576,-0.00028087,-0.00030596,-0.0000449
 4,0.00676242,0.00526654,-0.00932783,-0.00588277,-0.00255484,0.00198925
 ,-0.00102246,0.00032860,-0.00096711,-0.00001524,0.00000528,-0.00000255
 ,0.00007292,-0.00001106,0.00002627,-0.00000919,0.00000953,-0.00000905,
 0.14183261,-0.00003253,0.00074770,0.00025202,0.00010771,0.00001934,0.0
 0002194,-0.00007926,-0.00003257,-0.00004542,0.00006062,0.00001096,0.00
 002003,0.00005021,0.00004029,0.00000347,-0.00002576,-0.00020378,-0.000
 04597,0.00001390,0.00004704,0.00005097,-0.00032548,-0.00007537,-0.0001
 1916,0.00075738,-0.00022528,0.00020140,-0.00052362,-0.00015623,0.00008
 507,0.00006502,0.00201613,-0.00350416,-0.00200276,-0.00118009,0.000569
 65,-0.00061055,0.00060479,-0.00045129,0.00000807,0.00002379,0.00000489
 ,-0.00005487,-0.00003337,-0.00002488,0.00001263,0.00001156,0.00000796,
 -0.03181944,0.01208907,-0.00036763,0.00047457,0.00028322,-0.00004261,0
 .00000192,0.00001559,0.00009647,-0.00004748,-0.00015040,0.00001783,0.0
 0000079,0.00005885,-0.00001765,0.00001449,-0.00003692,0.00019899,-0.00
 022940,-0.00006593,-0.00016715,0.00009834,0.00020242,-0.00011060,-0.00
 004104,0.00006231,0.00023529,0.00019745,-0.00029411,0.00000579,0.00011
 228,0.00017055,-0.00587005,-0.00035139,0.00106730,0.00499190,0.0006762
 4,0.00022758,-0.00015594,-0.00029378,0.00032269,-0.00000091,0.00000058
 ,0.00001682,0.00002301,-0.00000781,-0.00002448,-0.00000578,0.00000608,
 0.00001500,0.17649417,-0.04857001,0.42001247,0.00367457,-0.00753855,0.
 00066069,0.00089524,-0.00009701,0.00015051,-0.00116789,0.00059384,0.00
 068337,0.00001637,-0.00020113,-0.00017279,-0.00015202,-0.00013378,0.00
 055406,-0.00137721,0.00214074,-0.00004047,0.00137769,-0.00087457,-0.00
 125508,-0.00013112,0.00008877,0.00020768,-0.00080457,-0.00361375,0.001
 16782,-0.00018336,-0.00014406,-0.00021868,0.00472581,0.00046626,0.0070
 9118,-0.05609305,-0.01476758,-0.01082233,-0.00270532,0.00783571,-0.003
 43765,0.00008417,-0.00002265,-0.00004007,-0.00047686,0.00008152,-0.000
 06425,0.00006394,-0.00006937,0.00001086,-0.15340330,0.03456334,-0.1487
 4492,0.45594940,-0.00104664,-0.00434851,0.00007921,-0.00000077,-0.0000
 5588,0.00000228,-0.00010819,0.00017184,0.00019331,-0.00009624,-0.00006
 571,-0.00005019,-0.00024378,-0.00006243,0.00014339,-0.00003777,0.00104
 646,-0.00007671,0.00024659,-0.00024239,-0.00032353,0.00069720,0.000239
 53,0.00014889,-0.00155262,-0.00018198,0.00007963,0.00077193,0.00020207
 ,-0.00031284,0.01150577,-0.01684206,0.00145546,-0.01612375,0.00844433,
 -0.00301193,0.00105922,0.00027134,-0.00002901,0.00000538,-0.00004718,-
 0.00001240,-0.00000592,0.00007800,0.00001848,-0.00001183,-0.00003521,-
 0.00000335,0.02989237,-0.02142967,0.03981287,-0.07969688,0.06170900,0.
 00039668,-0.00088335,-0.00116040,0.00004965,-0.00000253,-0.00003037,-0
 .00013764,0.00007398,0.00025251,-0.00004282,0.00000237,-0.00009787,0.0
 0005974,-0.00000772,0.00003479,-0.00027728,0.00034546,0.00009503,0.000
 26179,-0.00016652,-0.00034852,0.00002705,0.00003405,-0.00016897,0.0000
 1799,-0.00075962,0.00075491,-0.00032253,-0.00039306,-0.00019384,0.0084
 3122,0.00078628,-0.03324425,-0.01226499,-0.00360351,0.01164567,-0.0015
 3179,0.00150089,-0.00141723,0.00000175,-0.00000032,-0.00002774,-0.0000
 2884,0.00001161,0.00004387,0.00001038,-0.00001042,-0.00002711,-0.20540
 576,0.06219973,-0.38828038,-0.02606417,0.01027353,0.69637926,-0.000474
 53,0.00009405,0.00030084,-0.00013572,0.00001425,-0.00002009,0.00016633
 ,-0.00008341,-0.00009269,-0.00000695,0.00002840,0.00002540,-0.00002752
 ,0.00003194,-0.00004746,0.00020581,-0.00015316,-0.00002403,-0.00019225
 ,0.00012495,0.00017236,-0.00015748,-0.00010620,0.00003952,0.00030572,0
 .00001587,-0.00008263,-0.00010083,-0.00003343,0.00007072,0.00031724,0.
 00511229,0.01066834,-0.00271735,-0.00196233,-0.00310745,-0.00063331,0.
 00005910,0.00003170,-0.00001327,0.00000426,0.00000749,0.00007193,-0.00
 001295,0.00000572,-0.00001158,0.00001156,0.00000150,0.01204410,-0.0001
 6461,-0.02658021,-0.25029250,0.05474593,0.23681956,0.24165215,0.000189
 64,0.00070715,-0.00045071,0.00006607,0.00001975,0.00000384,-0.00005332
 ,-0.00002675,0.00001353,0.00002961,0.00001921,-0.00000978,0.00011465,0
 .00002769,-0.00002235,-0.00009320,-0.00017796,0.00011118,0.00003065,0.
 00002441,-0.00001484,-0.00038639,-0.00009929,0.00000653,0.00061093,-0.
 00024118,-0.00007127,-0.00029472,-0.00002533,0.00013676,-0.00162241,0.
 00261267,0.00374115,-0.00133829,-0.00142864,-0.00132198,-0.00034214,0.
 00068331,0.00023510,0.00000480,0.00002027,-0.00000074,-0.00003579,-0.0
 0002874,-0.00000582,0.00001232,0.00001102,-0.00000212,-0.00055502,0.00
 772570,0.00814531,0.06138915,-0.02885153,-0.06940086,-0.05772652,0.019
 02824,0.00014835,-0.00050411,0.00059438,0.00008476,-0.00001009,0.00003
 237,-0.00008196,0.00003897,-0.00001570,0.00001733,-0.00002109,0.000019
 33,-0.00005429,0.00001119,0.00007472,-0.00007139,0.00017033,-0.0000971
 4,0.00005844,-0.00003746,-0.00001903,0.00004621,-0.00000998,0.00014261
 ,-0.00026226,-0.00017977,-0.00012723,0.00016714,0.00008783,0.00002643,
 0.00544777,0.00141586,0.00607891,-0.00527019,-0.00099877,-0.00300931,0
 .00005365,0.00017491,0.00017915,0.00000834,-0.00000164,0.00000938,-0.0
 0004262,0.00000219,-0.00003225,0.00000181,-0.00000216,0.00001698,0.037
 60327,-0.01065622,-0.03360257,0.18033424,-0.04838708,-0.28420937,-0.21
 818859,0.05890709,0.31393835\\-0.00389166,0.00545466,-0.00125144,-0.00
 446711,0.01168359,-0.00360426,0.00151957,-0.01519525,0.01977098,-0.002
 51481,-0.00099546,-0.01111909,0.00439854,-0.00856154,0.00788363,0.0075
 9011,-0.00576688,-0.00124828,-0.00026648,0.00889332,-0.00548274,0.0049
 6518,0.00114260,0.01103142,-0.00986469,0.00608301,-0.00218756,0.003850
 33,-0.00284621,-0.01069187,0.00424266,-0.00040791,0.00757513,-0.007219
 12,0.00658676,-0.01584086,0.00075853,-0.00312324,0.00794735,0.00205816
 ,0.01158511,-0.00242101,0.00392367,-0.01293421,-0.01000565,-0.00049275
 ,-0.00293114,0.01112330,0.00137923,-0.00498513,-0.01037682,-0.00497352
 ,0.01029798,-0.00255075,-0.00099585,-0.00398005,0.01144850\\\@


 I think that all right-thinking people in this
 country are sick and tired of being told that
 ordinary, decent people are fed up in this country
 with being sick and tired.  I'm certainly not!
 But I'm sick and tired of being told that I am!
                               -- Monty Python
 Job cpu time:       0 days  0 hours 49 minutes 40.1 seconds.
 Elapsed time:       0 days  0 hours  1 minutes 47.5 seconds.
 File lengths (MBytes):  RWF=   2793 Int=      0 D2E=      0 Chk=      3 Scr=      1
 Normal termination of Gaussian 16 at Wed May 11 22:15:00 2022.
