 Entering Gaussian System, Link 0=g16
 Initial command:
 /cm/shared/apps/gaussian/intel/EM64T/SSE4_2-enabled/binary//g16/l1.exe "/scratch/florez/25750/Gau-17034.inp" -scrdir="/scratch/florez/25750/"
 Entering Link 1 = /cm/shared/apps/gaussian/intel/EM64T/SSE4_2-enabled/binary//g16/l1.exe PID=     17037.
  
 Copyright (c) 1988,1990,1992,1993,1995,1998,2003,2009,2016,
            Gaussian, Inc.  All Rights Reserved.
  
 This is part of the Gaussian(R) 16 program.  It is based on
 the Gaussian(R) 09 system (copyright 2009, Gaussian, Inc.),
 the Gaussian(R) 03 system (copyright 2003, Gaussian, Inc.),
 the Gaussian(R) 98 system (copyright 1998, Gaussian, Inc.),
 the Gaussian(R) 94 system (copyright 1995, Gaussian, Inc.),
 the Gaussian 92(TM) system (copyright 1992, Gaussian, Inc.),
 the Gaussian 90(TM) system (copyright 1990, Gaussian, Inc.),
 the Gaussian 88(TM) system (copyright 1988, Gaussian, Inc.),
 the Gaussian 86(TM) system (copyright 1986, Carnegie Mellon
 University), and the Gaussian 82(TM) system (copyright 1983,
 Carnegie Mellon University). Gaussian is a federally registered
 trademark of Gaussian, Inc.
  
 This software contains proprietary and confidential information,
 including trade secrets, belonging to Gaussian, Inc.
  
 This software is provided under written license and may be
 used, copied, transmitted, or stored only in accord with that
 written license.
  
 The following legend is applicable only to US Government
 contracts under FAR:
  
                    RESTRICTED RIGHTS LEGEND
  
 Use, reproduction and disclosure by the US Government is
 subject to restrictions as set forth in subparagraphs (a)
 and (c) of the Commercial Computer Software - Restricted
 Rights clause in FAR 52.227-19.
  
 Gaussian, Inc.
 340 Quinnipiac St., Bldg. 40, Wallingford CT 06492
  
  
 ---------------------------------------------------------------
 Warning -- This program may not be used in any manner that
 competes with the business of Gaussian, Inc. or will provide
 assistance to any competitor of Gaussian, Inc.  The licensee
 of this program is prohibited from giving any competitor of
 Gaussian, Inc. access to this program.  By using this program,
 the user acknowledges that Gaussian, Inc. is engaged in the
 business of creating and licensing software in the field of
 computational chemistry and represents and warrants to the
 licensee that it is not a competitor of Gaussian, Inc. and that
 it will not use this program in any manner prohibited above.
 ---------------------------------------------------------------
  

 Cite this work as:
 Gaussian 16, Revision A.03,
 M. J. Frisch, G. W. Trucks, H. B. Schlegel, G. E. Scuseria, 
 M. A. Robb, J. R. Cheeseman, G. Scalmani, V. Barone, 
 G. A. Petersson, H. Nakatsuji, X. Li, M. Caricato, A. V. Marenich, 
 J. Bloino, B. G. Janesko, R. Gomperts, B. Mennucci, H. P. Hratchian, 
 J. V. Ortiz, A. F. Izmaylov, J. L. Sonnenberg, D. Williams-Young, 
 F. Ding, F. Lipparini, F. Egidi, J. Goings, B. Peng, A. Petrone, 
 T. Henderson, D. Ranasinghe, V. G. Zakrzewski, J. Gao, N. Rega, 
 G. Zheng, W. Liang, M. Hada, M. Ehara, K. Toyota, R. Fukuda, 
 J. Hasegawa, M. Ishida, T. Nakajima, Y. Honda, O. Kitao, H. Nakai, 
 T. Vreven, K. Throssell, J. A. Montgomery, Jr., J. E. Peralta, 
 F. Ogliaro, M. J. Bearpark, J. J. Heyd, E. N. Brothers, K. N. Kudin, 
 V. N. Staroverov, T. A. Keith, R. Kobayashi, J. Normand, 
 K. Raghavachari, A. P. Rendell, J. C. Burant, S. S. Iyengar, 
 J. Tomasi, M. Cossi, J. M. Millam, M. Klene, C. Adamo, R. Cammi, 
 J. W. Ochterski, R. L. Martin, K. Morokuma, O. Farkas, 
 J. B. Foresman, and D. J. Fox, Gaussian, Inc., Wallingford CT, 2016.
 
 ******************************************
 Gaussian 16:  ES64L-G16RevA.03 25-Dec-2016
                11-May-2022 
 ******************************************
 %chk=w6s6.chk
 %nproc=28
 Will use up to   28 processors via shared memory.
 %mem=500gb
 ------------------------
 #p MP2(full) SDDAll freq
 ------------------------
 1/10=4,30=1,38=1/1,3;
 2/12=2,17=6,18=5,40=1/2;
 3/5=17,6=6,11=9,25=1,30=1,71=2,140=1/1,2,3;
 4//1;
 5/5=2,38=5,98=1/2;
 8/6=3,8=1,10=90,19=11/1;
 9/15=3,16=-3/6;
 11/6=1,8=1,15=11,17=11,24=-1,27=1,28=-2,29=300,32=6,42=3/1,2,10;
 10/6=2,21=1/2;
 8/6=4,8=1,10=90,19=11/11,4;
 10/5=1,20=4/2;
 11/12=2,14=11,16=1,28=-2,42=3/2,10,12;
 6/7=2,8=2,9=2,10=2/1;
 7/8=1,10=1,12=2,25=1,44=2/1,2,3,16;
 1/10=4,30=1/3;
 99//99;
 Leave Link    1 at Wed May 11 21:45:46 2022, MaxMem= 67108864000 cpu:               1.5 elap:               0.1
 (Enter /cm/shared/apps/gaussian/intel/EM64T/SSE4_2-enabled/binary//g16/l101.exe)
 ----------------------------------------------------------------------
 file 'w6s6.log' Now we use Def2-QZVPPD, but it was opt at: ---'ZORA-SR
 +SO PBE QZ4P'---
 ----------------------------------------------------------------------
 Symbolic Z-matrix:
 Charge =  2 Multiplicity = 1
 Hg(Fragment=1)        0.34542   0.10495  -0.22355 
 O(Fragment=2)         4.17669   1.06133  -0.128 
 H(Fragment=2)         4.63125   1.75366  -0.64341 
 H(Fragment=2)         4.88131   0.47794   0.20937 
 O(Fragment=2)        -5.59154   1.01152  -0.37072 
 H(Fragment=2)        -6.03209   1.26204  -1.20248 
 H(Fragment=2)        -6.28385   0.93051   0.30928 
 O(Fragment=2)        -3.75883  -0.60496  -0.57147 
 H(Fragment=2)        -4.007    -1.52854  -0.38559 
 H(Fragment=2)        -4.60687   0.09653  -0.44211 
 O(Fragment=2)         1.54854   1.72744   1.33776 
 H(Fragment=2)         1.16947   2.44932   1.86704 
 H(Fragment=2)         2.5142    1.84184   1.37974 
 O(Fragment=2)         2.13902   0.10658  -1.27212 
 H(Fragment=2)         3.01571   0.4482   -0.7963 
 H(Fragment=2)         2.32938  -0.70147  -1.78419 
 O(Fragment=2)        -1.51375   0.01238   0.50747 
 H(Fragment=2)        -1.46466   0.00846   1.48031 
 H(Fragment=2)        -2.87091  -0.36144  -0.10343 
 
 ITRead=  0  0  0  0  0  0  0  0  0  0  0  0  0  0  0  0  0  0  0
 MicOpt= -1 -1 -1 -1 -1 -1 -1 -1 -1 -1 -1 -1 -1 -1 -1 -1 -1 -1 -1
 NAtoms=     19 NQM=       19 NQMF=       0 NMMI=      0 NMMIF=      0
                NMic=       0 NMicF=      0.
                    Isotopes and Nuclear Properties:
 (Nuclear quadrupole moments (NQMom) in fm**2, nuclear magnetic moments (NMagM)
  in nuclear magnetons)

  Atom         1           2           3           4           5           6           7           8           9          10
 IAtWgt=         202          16           1           1          16           1           1          16           1           1
 AtmWgt= 201.9706000  15.9949146   1.0078250   1.0078250  15.9949146   1.0078250   1.0078250  15.9949146   1.0078250   1.0078250
 NucSpn=           0           0           1           1           0           1           1           0           1           1
 AtZEff=  -0.0000000  -0.0000000  -0.0000000  -0.0000000  -0.0000000  -0.0000000  -0.0000000  -0.0000000  -0.0000000  -0.0000000
 NQMom=    0.0000000   0.0000000   0.0000000   0.0000000   0.0000000   0.0000000   0.0000000   0.0000000   0.0000000   0.0000000
 NMagM=    0.0000000   0.0000000   2.7928460   2.7928460   0.0000000   2.7928460   2.7928460   0.0000000   2.7928460   2.7928460
 AtZNuc=  80.0000000   8.0000000   1.0000000   1.0000000   8.0000000   1.0000000   1.0000000   8.0000000   1.0000000   1.0000000

  Atom        11          12          13          14          15          16          17          18          19
 IAtWgt=          16           1           1          16           1           1          16           1           1
 AtmWgt=  15.9949146   1.0078250   1.0078250  15.9949146   1.0078250   1.0078250  15.9949146   1.0078250   1.0078250
 NucSpn=           0           1           1           0           1           1           0           1           1
 AtZEff=  -0.0000000  -0.0000000  -0.0000000  -0.0000000  -0.0000000  -0.0000000  -0.0000000  -0.0000000  -0.0000000
 NQMom=    0.0000000   0.0000000   0.0000000   0.0000000   0.0000000   0.0000000   0.0000000   0.0000000   0.0000000
 NMagM=    0.0000000   2.7928460   2.7928460   0.0000000   2.7928460   2.7928460   0.0000000   2.7928460   2.7928460
 AtZNuc=   8.0000000   1.0000000   1.0000000   8.0000000   1.0000000   1.0000000   8.0000000   1.0000000   1.0000000
 Leave Link  101 at Wed May 11 21:45:46 2022, MaxMem= 67108864000 cpu:               2.3 elap:               0.1
 (Enter /cm/shared/apps/gaussian/intel/EM64T/SSE4_2-enabled/binary//g16/l103.exe)

 GradGradGradGradGradGradGradGradGradGradGradGradGradGradGradGradGradGrad
 Berny optimization.
 Initialization pass.
 Trust Radius=3.00D-01 FncErr=1.00D-07 GrdErr=1.00D-07 EigMax=2.50D+02 EigMin=1.00D-04
 Number of steps in this run=      2 maximum allowed number of steps=      2.
 GradGradGradGradGradGradGradGradGradGradGradGradGradGradGradGradGradGrad

 Leave Link  103 at Wed May 11 21:45:46 2022, MaxMem= 67108864000 cpu:               0.6 elap:               0.0
 (Enter /cm/shared/apps/gaussian/intel/EM64T/SSE4_2-enabled/binary//g16/l202.exe)
                          Input orientation:                          
 ---------------------------------------------------------------------
 Center     Atomic      Atomic             Coordinates (Angstroms)
 Number     Number       Type             X           Y           Z
 ---------------------------------------------------------------------
      1         80           0        0.345421    0.104948   -0.223554
      2          8           0        4.176689    1.061327   -0.127995
      3          1           0        4.631246    1.753663   -0.643407
      4          1           0        4.881309    0.477944    0.209365
      5          8           0       -5.591540    1.011521   -0.370715
      6          1           0       -6.032093    1.262036   -1.202481
      7          1           0       -6.283846    0.930511    0.309282
      8          8           0       -3.758834   -0.604959   -0.571473
      9          1           0       -4.007002   -1.528542   -0.385586
     10          1           0       -4.606871    0.096532   -0.442111
     11          8           0        1.548540    1.727442    1.337759
     12          1           0        1.169466    2.449323    1.867039
     13          1           0        2.514204    1.841840    1.379742
     14          8           0        2.139023    0.106583   -1.272120
     15          1           0        3.015708    0.448199   -0.796301
     16          1           0        2.329377   -0.701470   -1.784193
     17          8           0       -1.513754    0.012382    0.507465
     18          1           0       -1.464663    0.008455    1.480311
     19          1           0       -2.870909   -0.361435   -0.103428
 ---------------------------------------------------------------------
                    Distance matrix (angstroms):
                    1          2          3          4          5
     1  Hg   0.000000
     2  O    3.949988   0.000000
     3  H    4.611164   0.975500   0.000000
     4  H    4.571742   0.975006   1.554738   0.000000
     5  O    6.007582   9.771371  10.253316  10.502465   0.000000
     6  H    6.555138  10.267134  10.689296  11.032246   0.974002
     7  H    6.701690  10.470488  10.987467  11.174770   0.973779
     8  O    4.179704   8.120696   8.715602   8.742680   2.451963
     9  H    4.651680   8.587582   9.244386   9.131376   2.993811
    10  H    4.957120   8.841969   9.387727   9.518165   1.346059
    11  O    2.552975   3.082095   3.664530   3.733881   7.376460
    12  H    3.247418   3.866534   4.332459   4.517964   7.265399
    13  H    3.207954   2.376200   2.929637   2.972067   8.334064
    14  O    2.077619   2.524409   3.052757   3.138923   7.835372
    15  H    2.752507   1.473240   2.082685   2.119603   8.636155
    16  H    2.649903   3.043519   3.553544   3.446396   8.226371
    17  O    1.999872   5.821103   6.489807   6.418913   4.289268
    18  H    2.487744   5.959869   6.687005   6.488997   4.632877
    19  H    3.252187   7.189819   7.813293   7.803799   3.059131
                    6          7          8          9         10
     6  H    0.000000
     7  H    1.568029   0.000000
     8  O    3.008579   3.083680   0.000000
     9  H    3.543393   3.422543   0.974242   0.000000
    10  H    1.991939   2.018008   1.108148   1.733177   0.000000
    11  O    8.008459   7.939719   6.103563   6.665988   6.611875
    12  H    7.917958   7.764358   6.289922   6.906052   6.650855
    13  H    8.946689   8.909663   7.010355   7.549966   7.554797
    14  O    8.252700   8.609554   5.981799   6.421308   6.796771
    15  H    9.093405   9.377454   6.859600   7.307164   7.638902
    16  H    8.608596   9.012969   6.208568   6.541395   7.109819
    17  O    4.990084   4.861688   2.566243   3.064029   3.236688
    18  H    5.443368   5.044405   3.138362   3.508193   3.684689
    19  H    3.719766   3.672546   1.032851   1.653015   1.827021
                   11         12         13         14         15
    11  O    0.000000
    12  H    0.972084   0.000000
    13  H    0.973322   1.553967   0.000000
    14  O    3.128470   4.035194   3.191277   0.000000
    15  H    2.888470   3.808738   2.632281   1.054363   0.000000
    16  H    4.031861   4.960281   4.063628   0.975399   1.663947
    17  O    3.606725   3.871278   4.509127   4.064305   4.733473
    18  H    3.471978   3.611929   4.382100   4.535643   5.044805
    19  H    5.096269   5.301672   6.004470   5.165685   5.982294
                   16         17         18         19
    16  H    0.000000
    17  O    4.531108   0.000000
    18  H    5.055267   0.974092   0.000000
    19  H    5.475725   1.534535   2.150018   0.000000
 Stoichiometry    H12HgO6(2+)
 Framework group  C1[X(H12HgO6)]
 Deg. of freedom    51
 Full point group                 C1      NOp   1
 Largest Abelian subgroup         C1      NOp   1
 Largest concise Abelian subgroup C1      NOp   1
                         Standard orientation:                         
 ---------------------------------------------------------------------
 Center     Atomic      Atomic             Coordinates (Angstroms)
 Number     Number       Type             X           Y           Z
 ---------------------------------------------------------------------
      1         80           0       -0.352749   -0.206122   -0.097314
      2          8           0       -4.238598    0.302270    0.396770
      3          1           0       -4.724251    0.405231    1.236497
      4          1           0       -4.912184    0.079894   -0.272160
      5          8           0        5.515762    0.705042    0.809000
      6          1           0        5.958916    0.328014    1.590116
      7          1           0        6.195554    1.166825    0.286615
      8          8           0        3.795632   -0.699026   -0.231130
      9          1           0        4.097986   -1.210061   -1.003511
     10          1           0        4.593693   -0.056846    0.191593
     11          8           0       -1.693930    1.966155   -0.108664
     12          1           0       -1.374505    2.873741    0.029905
     13          1           0       -2.665662    2.016775   -0.085588
     14          8           0       -2.117462   -1.051060    0.601518
     15          1           0       -3.025241   -0.529480    0.476723
     16          1           0       -2.243495   -1.996114    0.395626
     17          8           0        1.490722    0.355833   -0.631461
     18          1           0        1.418982    1.031377   -1.329564
     19          1           0        2.883107   -0.253336   -0.419384
 ---------------------------------------------------------------------
 Rotational constants (GHZ):           3.0913300           0.3583714           0.3363895
 Leave Link  202 at Wed May 11 21:45:46 2022, MaxMem= 67108864000 cpu:               0.5 elap:               0.0
 (Enter /cm/shared/apps/gaussian/intel/EM64T/SSE4_2-enabled/binary//g16/l301.exe)
 Standard basis: SDDAll (6D, 10F)
 Ernie: Thresh=  0.10000D-02 Tol=  0.10000D-05 Strict=F.
 There are   129 symmetry adapted cartesian basis functions of A   symmetry.
 There are   129 symmetry adapted basis functions of A   symmetry.
   129 basis functions,   227 primitive gaussians,   129 cartesian basis functions
    33 alpha electrons       33 beta electrons
       nuclear repulsion energy       322.2495315348 Hartrees.
 IExCor=    0 DFT=F Ex=HF Corr=None ExCW=0 ScaHFX=  1.000000
 ScaDFX=  1.000000  1.000000  1.000000  1.000000 ScalE2=  1.000000  1.000000
 IRadAn=      5 IRanWt=     -1 IRanGd=            0 ICorTp=0 IEmpDi=  4
 NAtoms=   19 NActive=   19 NUniq=   19 SFac= 1.00D+00 NAtFMM=   60 NAOKFM=F Big=F
 Integral buffers will be    131072 words long.
 Raffenetti 1 integral format.
 Two-electron integral symmetry is turned on.
 Leave Link  301 at Wed May 11 21:45:46 2022, MaxMem= 67108864000 cpu:               1.9 elap:               0.1
 (Enter /cm/shared/apps/gaussian/intel/EM64T/SSE4_2-enabled/binary//g16/l302.exe)
 NPDir=0 NMtPBC=     1 NCelOv=     1 NCel=       1 NClECP=     1 NCelD=      1
         NCelK=      1 NCelE2=     1 NClLst=     1 CellRange=     0.0.
 One-electron integrals computed using PRISM.
 One-electron integral symmetry used in STVInt
   1 Symmetry operations used in ECPInt.
 ECPInt:  NShTT=    2346 NPrTT=    7709 LenC2=    2216 LenP2D=    5603.
 LDataN:  DoStor=T MaxTD1= 7 Len=  274
 NBasis=   129 RedAO= T EigKep=  3.84D-04  NBF=   129
 NBsUse=   129 1.00D-06 EigRej= -1.00D+00 NBFU=   129
 Leave Link  302 at Wed May 11 21:45:47 2022, MaxMem= 67108864000 cpu:               6.4 elap:               0.3
 (Enter /cm/shared/apps/gaussian/intel/EM64T/SSE4_2-enabled/binary//g16/l303.exe)
 DipDrv:  MaxL=1.
 Leave Link  303 at Wed May 11 21:45:47 2022, MaxMem= 67108864000 cpu:               0.9 elap:               0.1
 (Enter /cm/shared/apps/gaussian/intel/EM64T/SSE4_2-enabled/binary//g16/l401.exe)
 ExpMin= 2.00D-02 ExpMax= 4.71D+01 ExpMxC= 4.71D+01 IAcc=3 IRadAn=         5 AccDes= 0.00D+00
 Harris functional with IExCor=  205 and IRadAn=       5 diagonalized for initial guess.
 HarFok:  IExCor=  205 AccDes= 0.00D+00 IRadAn=         5 IDoV= 1 UseB2=F ITyADJ=14
 ICtDFT=  3500011 ScaDFX=  1.000000  1.000000  1.000000  1.000000
 Defaulting to unpruned grid for atomic number  80.
 FoFCou: FMM=F IPFlag=           0 FMFlag=      100000 FMFlg1=           0
         NFxFlg=           0 DoJE=T BraDBF=F KetDBF=T FulRan=T
         wScrn=  0.000000 ICntrl=       500 IOpCl=  0 I1Cent=   200000004 NGrid=           0
         NMat0=    1 NMatS0=      1 NMatT0=    0 NMatD0=    1 NMtDS0=    0 NMtDT0=    0
 Petite list used in FoFCou.
 Harris En= -257.154899211739    
 JPrj=0 DoOrth=F DoCkMO=F.
 Leave Link  401 at Wed May 11 21:45:47 2022, MaxMem= 67108864000 cpu:               8.6 elap:               0.4
 (Enter /cm/shared/apps/gaussian/intel/EM64T/SSE4_2-enabled/binary//g16/l502.exe)
 Integral symmetry usage will be decided dynamically.
 Closed shell SCF:
 Using DIIS extrapolation, IDIIS=  1040.
 NGot= 67108864000 LenX= 67108825412 LenY= 67108808330
 Requested convergence on RMS density matrix=1.00D-08 within 128 cycles.
 Requested convergence on MAX density matrix=1.00D-06.
 Requested convergence on             energy=1.00D-06.
 No special actions if energy rises.
 Fock matrices will be formed incrementally for  20 cycles.

 Cycle   1  Pass 0  IDiag  1:
 FoFJK:  IHMeth= 1 ICntrl=       0 DoSepK=F KAlg= 0 I1Cent=           0 FoldK=F
 IRaf= 900000000 NMat=       1 IRICut=       1 DoRegI=T DoRafI=F ISym2E= 0 IDoP0=0 IntGTp=1.
 FoFCou: FMM=F IPFlag=           0 FMFlag=      100000 FMFlg1=           0
         NFxFlg=           0 DoJE=F BraDBF=F KetDBF=F FulRan=T
         wScrn=  0.000000 ICntrl=         0 IOpCl=  0 I1Cent=           0 NGrid=           0
         NMat0=    1 NMatS0=      1 NMatT0=    0 NMatD0=    1 NMtDS0=    0 NMtDT0=    0
 Symmetry not used in FoFCou.
 E= -252.950793543673    
 DIIS: error= 3.91D-02 at cycle   1 NSaved=   1.
 NSaved= 1 IEnMin= 1 EnMin= -252.950793543673     IErMin= 1 ErrMin= 3.91D-02
 ErrMax= 3.91D-02  0.00D+00 EMaxC= 1.00D-01 BMatC= 6.20D-01 BMatP= 6.20D-01
 IDIUse=3 WtCom= 6.09D-01 WtEn= 3.91D-01
 Coeff-Com:  0.100D+01
 Coeff-En:   0.100D+01
 Coeff:      0.100D+01
 Gap=     0.666 Goal=   None    Shift=    0.000
 GapD=    0.666 DampG=2.000 DampE=0.250 DampFc=0.5000 IDamp=-1.
 Damping current iteration by 5.00D-01
 RMSDP=7.78D-03 MaxDP=2.20D-01              OVMax= 2.24D-01

 Cycle   2  Pass 0  IDiag  1:
 RMSU=  3.87D-03    CP:  1.01D+00
 E= -253.214376700263     Delta-E=       -0.263583156589 Rises=F Damp=T
 DIIS: error= 1.06D-02 at cycle   2 NSaved=   2.
 NSaved= 2 IEnMin= 2 EnMin= -253.214376700263     IErMin= 2 ErrMin= 1.06D-02
 ErrMax= 1.06D-02  0.00D+00 EMaxC= 1.00D-01 BMatC= 3.86D-02 BMatP= 6.20D-01
 IDIUse=3 WtCom= 8.94D-01 WtEn= 1.06D-01
 Coeff-Com: -0.233D+00 0.123D+01
 Coeff-En:   0.000D+00 0.100D+01
 Coeff:     -0.208D+00 0.121D+01
 Gap=     0.549 Goal=   None    Shift=    0.000
 RMSDP=2.47D-03 MaxDP=7.30D-02 DE=-2.64D-01 OVMax= 7.18D-02

 Cycle   3  Pass 0  IDiag  1:
 RMSU=  2.15D-03    CP:  1.00D+00  1.30D+00
 E= -253.439823551885     Delta-E=       -0.225446851623 Rises=F Damp=F
 DIIS: error= 2.80D-03 at cycle   3 NSaved=   3.
 NSaved= 3 IEnMin= 3 EnMin= -253.439823551885     IErMin= 3 ErrMin= 2.80D-03
 ErrMax= 2.80D-03  0.00D+00 EMaxC= 1.00D-01 BMatC= 3.34D-03 BMatP= 3.86D-02
 IDIUse=3 WtCom= 9.72D-01 WtEn= 2.80D-02
 Coeff-Com:  0.257D-01-0.673D-01 0.104D+01
 Coeff-En:   0.000D+00 0.000D+00 0.100D+01
 Coeff:      0.250D-01-0.654D-01 0.104D+01
 Gap=     0.524 Goal=   None    Shift=    0.000
 RMSDP=9.11D-04 MaxDP=3.03D-02 DE=-2.25D-01 OVMax= 2.14D-02

 Cycle   4  Pass 0  IDiag  1:
 RMSU=  5.29D-04    CP:  9.95D-01  1.25D+00  1.31D+00
 E= -253.443692958427     Delta-E=       -0.003869406542 Rises=F Damp=F
 DIIS: error= 2.54D-03 at cycle   4 NSaved=   4.
 NSaved= 4 IEnMin= 4 EnMin= -253.443692958427     IErMin= 4 ErrMin= 2.54D-03
 ErrMax= 2.54D-03  0.00D+00 EMaxC= 1.00D-01 BMatC= 6.62D-04 BMatP= 3.34D-03
 IDIUse=3 WtCom= 9.75D-01 WtEn= 2.54D-02
 Coeff-Com:  0.346D-01-0.155D+00 0.326D+00 0.794D+00
 Coeff-En:   0.000D+00 0.000D+00 0.000D+00 0.100D+01
 Coeff:      0.337D-01-0.151D+00 0.318D+00 0.800D+00
 Gap=     0.529 Goal=   None    Shift=    0.000
 RMSDP=3.74D-04 MaxDP=1.02D-02 DE=-3.87D-03 OVMax= 1.73D-02

 Cycle   5  Pass 0  IDiag  1:
 RMSU=  2.12D-04    CP:  9.93D-01  1.26D+00  1.45D+00  1.09D+00
 E= -253.444738109069     Delta-E=       -0.001045150642 Rises=F Damp=F
 DIIS: error= 6.22D-04 at cycle   5 NSaved=   5.
 NSaved= 5 IEnMin= 5 EnMin= -253.444738109069     IErMin= 5 ErrMin= 6.22D-04
 ErrMax= 6.22D-04  0.00D+00 EMaxC= 1.00D-01 BMatC= 5.38D-05 BMatP= 6.62D-04
 IDIUse=3 WtCom= 9.94D-01 WtEn= 6.22D-03
 Coeff-Com: -0.149D-01 0.538D-01-0.144D+00-0.149D+00 0.125D+01
 Coeff-En:   0.000D+00 0.000D+00 0.000D+00 0.000D+00 0.100D+01
 Coeff:     -0.148D-01 0.535D-01-0.143D+00-0.148D+00 0.125D+01
 Gap=     0.527 Goal=   None    Shift=    0.000
 RMSDP=1.90D-04 MaxDP=4.62D-03 DE=-1.05D-03 OVMax= 7.82D-03

 Cycle   6  Pass 0  IDiag  1:
 RMSU=  6.41D-05    CP:  9.92D-01  1.26D+00  1.50D+00  1.24D+00  1.46D+00
 E= -253.444919381380     Delta-E=       -0.000181272312 Rises=F Damp=F
 DIIS: error= 2.27D-04 at cycle   6 NSaved=   6.
 NSaved= 6 IEnMin= 6 EnMin= -253.444919381380     IErMin= 6 ErrMin= 2.27D-04
 ErrMax= 2.27D-04  0.00D+00 EMaxC= 1.00D-01 BMatC= 1.39D-05 BMatP= 5.38D-05
 IDIUse=3 WtCom= 9.98D-01 WtEn= 2.27D-03
 Coeff-Com: -0.893D-02 0.366D-01-0.111D+00-0.164D+00 0.396D+00 0.851D+00
 Coeff-En:   0.000D+00 0.000D+00 0.000D+00 0.000D+00 0.000D+00 0.100D+01
 Coeff:     -0.891D-02 0.365D-01-0.111D+00-0.164D+00 0.395D+00 0.852D+00
 Gap=     0.527 Goal=   None    Shift=    0.000
 RMSDP=8.79D-05 MaxDP=2.20D-03 DE=-1.81D-04 OVMax= 3.82D-03

 Cycle   7  Pass 0  IDiag  1:
 RMSU=  2.28D-05    CP:  9.91D-01  1.26D+00  1.53D+00  1.31D+00  1.66D+00
                    CP:  1.27D+00
 E= -253.444949313803     Delta-E=       -0.000029932423 Rises=F Damp=F
 DIIS: error= 4.37D-05 at cycle   7 NSaved=   7.
 NSaved= 7 IEnMin= 7 EnMin= -253.444949313803     IErMin= 7 ErrMin= 4.37D-05
 ErrMax= 4.37D-05  0.00D+00 EMaxC= 1.00D-01 BMatC= 8.62D-07 BMatP= 1.39D-05
 IDIUse=1 WtCom= 1.00D+00 WtEn= 0.00D+00
 Coeff-Com:  0.316D-02-0.928D-02 0.231D-01 0.404D-01-0.178D+00-0.147D+00
 Coeff-Com:  0.127D+01
 Coeff:      0.316D-02-0.928D-02 0.231D-01 0.404D-01-0.178D+00-0.147D+00
 Coeff:      0.127D+01
 Gap=     0.527 Goal=   None    Shift=    0.000
 RMSDP=2.68D-05 MaxDP=5.82D-04 DE=-2.99D-05 OVMax= 1.20D-03

 Cycle   8  Pass 0  IDiag  1:
 RMSU=  6.55D-06    CP:  9.91D-01  1.26D+00  1.54D+00  1.33D+00  1.71D+00
                    CP:  1.45D+00  1.33D+00
 E= -253.444951652396     Delta-E=       -0.000002338593 Rises=F Damp=F
 DIIS: error= 1.24D-05 at cycle   8 NSaved=   8.
 NSaved= 8 IEnMin= 8 EnMin= -253.444951652396     IErMin= 8 ErrMin= 1.24D-05
 ErrMax= 1.24D-05  0.00D+00 EMaxC= 1.00D-01 BMatC= 4.58D-08 BMatP= 8.62D-07
 IDIUse=1 WtCom= 1.00D+00 WtEn= 0.00D+00
 Coeff-Com:  0.276D-03-0.113D-02 0.501D-02 0.546D-02-0.214D-01-0.190D-01
 Coeff-Com:  0.385D-01 0.992D+00
 Coeff:      0.276D-03-0.113D-02 0.501D-02 0.546D-02-0.214D-01-0.190D-01
 Coeff:      0.385D-01 0.992D+00
 Gap=     0.527 Goal=   None    Shift=    0.000
 RMSDP=2.83D-06 MaxDP=6.70D-05 DE=-2.34D-06 OVMax= 1.07D-04

 Initial convergence to 1.0D-05 achieved.  Increase integral accuracy.
 Cycle   9  Pass 1  IDiag  1:
 E= -253.444951740120     Delta-E=       -0.000000087723 Rises=F Damp=F
 DIIS: error= 5.08D-06 at cycle   1 NSaved=   1.
 NSaved= 1 IEnMin= 1 EnMin= -253.444951740120     IErMin= 1 ErrMin= 5.08D-06
 ErrMax= 5.08D-06  0.00D+00 EMaxC= 1.00D-01 BMatC= 9.79D-09 BMatP= 9.79D-09
 IDIUse=1 WtCom= 1.00D+00 WtEn= 0.00D+00
 Coeff-Com:  0.100D+01
 Coeff:      0.100D+01
 Gap=     0.527 Goal=   None    Shift=    0.000
 RMSDP=2.83D-06 MaxDP=6.70D-05 DE=-8.77D-08 OVMax= 4.60D-05

 Cycle  10  Pass 1  IDiag  1:
 RMSU=  1.06D-06    CP:  1.00D+00
 E= -253.444951756115     Delta-E=       -0.000000015995 Rises=F Damp=F
 DIIS: error= 3.23D-06 at cycle   2 NSaved=   2.
 NSaved= 2 IEnMin= 2 EnMin= -253.444951756115     IErMin= 2 ErrMin= 3.23D-06
 ErrMax= 3.23D-06  0.00D+00 EMaxC= 1.00D-01 BMatC= 3.18D-09 BMatP= 9.79D-09
 IDIUse=1 WtCom= 1.00D+00 WtEn= 0.00D+00
 Coeff-Com:  0.283D+00 0.717D+00
 Coeff:      0.283D+00 0.717D+00
 Gap=     0.527 Goal=   None    Shift=    0.000
 RMSDP=4.34D-07 MaxDP=1.04D-05 DE=-1.60D-08 OVMax= 1.97D-05

 Cycle  11  Pass 1  IDiag  1:
 RMSU=  3.80D-07    CP:  1.00D+00  1.20D+00
 E= -253.444951760516     Delta-E=       -0.000000004401 Rises=F Damp=F
 DIIS: error= 1.43D-06 at cycle   3 NSaved=   3.
 NSaved= 3 IEnMin= 3 EnMin= -253.444951760516     IErMin= 3 ErrMin= 1.43D-06
 ErrMax= 1.43D-06  0.00D+00 EMaxC= 1.00D-01 BMatC= 5.82D-10 BMatP= 3.18D-09
 IDIUse=1 WtCom= 1.00D+00 WtEn= 0.00D+00
 Coeff-Com: -0.380D+00-0.280D+00 0.166D+01
 Coeff:     -0.380D+00-0.280D+00 0.166D+01
 Gap=     0.527 Goal=   None    Shift=    0.000
 RMSDP=6.46D-07 MaxDP=1.36D-05 DE=-4.40D-09 OVMax= 3.21D-05

 Cycle  12  Pass 1  IDiag  1:
 RMSU=  1.24D-07    CP:  1.00D+00  1.73D+00  1.74D+00
 E= -253.444951762870     Delta-E=       -0.000000002353 Rises=F Damp=F
 DIIS: error= 2.55D-07 at cycle   4 NSaved=   4.
 NSaved= 4 IEnMin= 4 EnMin= -253.444951762870     IErMin= 4 ErrMin= 2.55D-07
 ErrMax= 2.55D-07  0.00D+00 EMaxC= 1.00D-01 BMatC= 2.27D-11 BMatP= 5.82D-10
 IDIUse=1 WtCom= 1.00D+00 WtEn= 0.00D+00
 Coeff-Com: -0.926D-01-0.855D-01 0.374D+00 0.805D+00
 Coeff:     -0.926D-01-0.855D-01 0.374D+00 0.805D+00
 Gap=     0.527 Goal=   None    Shift=    0.000
 RMSDP=6.49D-08 MaxDP=1.57D-06 DE=-2.35D-09 OVMax= 3.45D-06

 Cycle  13  Pass 1  IDiag  1:
 RMSU=  3.17D-08    CP:  1.00D+00  1.77D+00  1.82D+00  1.26D+00
 E= -253.444951762911     Delta-E=       -0.000000000041 Rises=F Damp=F
 DIIS: error= 1.21D-07 at cycle   5 NSaved=   5.
 NSaved= 5 IEnMin= 5 EnMin= -253.444951762911     IErMin= 5 ErrMin= 1.21D-07
 ErrMax= 1.21D-07  0.00D+00 EMaxC= 1.00D-01 BMatC= 4.39D-12 BMatP= 2.27D-11
 IDIUse=1 WtCom= 1.00D+00 WtEn= 0.00D+00
 Coeff-Com:  0.109D+00 0.793D-01-0.473D+00-0.664D-01 0.135D+01
 Coeff:      0.109D+00 0.793D-01-0.473D+00-0.664D-01 0.135D+01
 Gap=     0.527 Goal=   None    Shift=    0.000
 RMSDP=5.76D-08 MaxDP=1.42D-06 DE=-4.10D-11 OVMax= 2.57D-06

 Cycle  14  Pass 1  IDiag  1:
 RMSU=  1.48D-08    CP:  1.00D+00  1.79D+00  1.87D+00  1.62D+00  1.46D+00
 E= -253.444951762929     Delta-E=       -0.000000000018 Rises=F Damp=F
 DIIS: error= 2.85D-08 at cycle   6 NSaved=   6.
 NSaved= 6 IEnMin= 6 EnMin= -253.444951762929     IErMin= 6 ErrMin= 2.85D-08
 ErrMax= 2.85D-08  0.00D+00 EMaxC= 1.00D-01 BMatC= 2.18D-13 BMatP= 4.39D-12
 IDIUse=1 WtCom= 1.00D+00 WtEn= 0.00D+00
 Coeff-Com:  0.129D-01 0.105D-01-0.542D-01-0.479D-01 0.124D+00 0.955D+00
 Coeff:      0.129D-01 0.105D-01-0.542D-01-0.479D-01 0.124D+00 0.955D+00
 Gap=     0.527 Goal=   None    Shift=    0.000
 RMSDP=8.29D-09 MaxDP=1.75D-07 DE=-1.82D-11 OVMax= 3.47D-07

 SCF Done:  E(RHF) =  -253.444951763     A.U. after   14 cycles
            NFock= 14  Conv=0.83D-08     -V/T= 2.9201
 KE= 1.319982744103D+02 PE=-1.190301526015D+03 EE= 4.826087683074D+02
 Leave Link  502 at Wed May 11 21:45:49 2022, MaxMem= 67108864000 cpu:              60.9 elap:               2.2
 (Enter /cm/shared/apps/gaussian/intel/EM64T/SSE4_2-enabled/binary//g16/l801.exe)
 Range of M.O.s used for correlation:     1   129
 NBasis=   129 NAE=    33 NBE=    33 NFC=     0 NFV=     0
 NROrb=    129 NOA=    33 NOB=    33 NVA=    96 NVB=    96

 **** Warning!!: The largest alpha MO coefficient is  0.28653714D+02

 Leave Link  801 at Wed May 11 21:45:49 2022, MaxMem= 67108864000 cpu:               0.6 elap:               0.0
 (Enter /cm/shared/apps/gaussian/intel/EM64T/SSE4_2-enabled/binary//g16/l906.exe)
 FulOut=F Deriv=T AODrv=T NAtomX=    19
   MMem=           0  MDisk=          33 MDiskD=          33
  W3Min=      549153 MinDsk=     1693460 NBas6D=         129
 NBas2D=        8499    NTT=        8385    LW2=     3308096
    MDV= 67108626445 MDiskM=     7225088 NBas2p=        7842
 Disk-based method using ON**2 memory for 33 occupieds at a time.
 Permanent disk used for amplitudes=    12443904 words.
 Estimated scratch disk usage=   127559714 words.
 IMap=   1   2   3   4   5   6   7   8   9  10  11  12  13  14  15  16  17  18  19  20
 IMap=  21  22  23  24  25  26  27  28  29  30  31  32  33
 Actual    scratch disk usage=   116607010 words.
 JobTyp=1 Pass  1:  I=   1 to  33 NPSUse= 28 ParTrn=T ParDer=T DoDerP=T.
 (rs|ai) integrals will be sorted in core.
 Spin components of T(2) and E(2):
     alpha-alpha T2 =       0.3626223105D-01 E2=     -0.1161841864D+00
     alpha-beta  T2 =       0.2125763833D+00 E2=     -0.6926070477D+00
     beta-beta   T2 =       0.3626223105D-01 E2=     -0.1161841864D+00
 The integrals were generated   1 times.
 ANorm=    0.1133622885D+01
 E2 =    -0.9249754205D+00 EUMP2 =    -0.25436992718338D+03
 Leave Link  906 at Wed May 11 21:46:04 2022, MaxMem= 67108864000 cpu:             417.1 elap:              15.0
 (Enter /cm/shared/apps/gaussian/intel/EM64T/SSE4_2-enabled/binary//g16/l1101.exe)
 Using compressed Sx but separate Hx and Fx, NAtomX=    19.
 Will process     20 centers per pass.
   1 Symmetry operations used in ECPInt.
 ECPInt:  NShTT=    2346 NPrTT=    7709 LenC2=    2216 LenP2D=    5603.
 LDataN:  DoStor=T MaxTD1= 8 Len=  415
 Leave Link 1101 at Wed May 11 21:46:05 2022, MaxMem= 67108864000 cpu:              13.2 elap:               0.5
 (Enter /cm/shared/apps/gaussian/intel/EM64T/SSE4_2-enabled/binary//g16/l1102.exe)
 Leave Link 1102 at Wed May 11 21:46:05 2022, MaxMem= 67108864000 cpu:               1.2 elap:               0.1
 (Enter /cm/shared/apps/gaussian/intel/EM64T/SSE4_2-enabled/binary//g16/l1110.exe)
 Forming Gx(P) for the SCF density, NAtomX=    19.
 Integral derivatives from FoFJK, PRISM(SPDF).
 Do as many integral derivatives as possible in FoFJK.
 G2DrvN: MDV=   67108862534.
 G2DrvN: will do    20 centers at a time, making    1 passes.
 Calling FoFCou, ICntrl=  3107 FMM=F I1Cent=   0 AccDes= 0.00D+00.
 FoFJK:  IHMeth= 1 ICntrl=    3107 DoSepK=F KAlg= 0 I1Cent=           0 FoldK=F
 IRaf=         0 NMat=       1 IRICut=       1 DoRegI=T DoRafI=F ISym2E= 0 IDoP0=0 IntGTp=1.
 FoFCou: FMM=F IPFlag=           0 FMFlag=      100000 FMFlg1=           0
         NFxFlg=           0 DoJE=F BraDBF=F KetDBF=F FulRan=T
         wScrn=  0.000000 ICntrl=      3107 IOpCl=  0 I1Cent=           0 NGrid=           0
         NMat0=    1 NMatS0=      1 NMatT0=    0 NMatD0=    1 NMtDS0=    0 NMtDT0=    0
 Symmetry not used in FoFCou.
 End of G2Drv F.D. properties file   721 does not exist.
 End of G2Drv F.D. properties file   722 does not exist.
 End of G2Drv F.D. properties file   788 does not exist.
 Leave Link 1110 at Wed May 11 21:46:05 2022, MaxMem= 67108864000 cpu:              12.5 elap:               0.5
 (Enter /cm/shared/apps/gaussian/intel/EM64T/SSE4_2-enabled/binary//g16/l1002.exe)
 Minotr:  Closed shell wavefunction.
          IDoAtm=1111111111111111111
          Direct CPHF calculation.
          Differentiating once with respect to electric field.
                with respect to dipole field.
          Differentiating once with respect to nuclear coordinates.
          Requested convergence is 1.0D-08 RMS, and 1.0D-07 maximum.
          Secondary convergence is 1.0D-12 RMS, and 1.0D-12 maximum.
          NewPWx=T KeepS1=T KeepF1=T KeepIn=T MapXYZ=F SortEE=F KeepMc=T.
 Keep R1 ints in memory in canonical form, NReq=41158183.
 FoFCou: FMM=F IPFlag=           0 FMFlag=           0 FMFlg1=           0
         NFxFlg=           0 DoJE=F BraDBF=F KetDBF=F FulRan=T
         wScrn=  0.000000 ICntrl=       600 IOpCl=  0 I1Cent=           0 NGrid=           0
         NMat0=    1 NMatS0=   8385 NMatT0=    0 NMatD0=    1 NMtDS0=    0 NMtDT0=    0
 Symmetry not used in FoFCou.
 Two-electron integral symmetry not used.
          MDV=   67108864000 using IRadAn=       1.
          Solving linear equations simultaneously, MaxMat=       0.
          There are    60 degrees of freedom in the 1st order CPHF.  IDoFFX=6 NUNeed=    60.
     57 vectors produced by pass  0 Test12= 5.28D-15 1.67D-09 XBig12= 1.30D+01 1.04D+00.
 AX will form    57 AO Fock derivatives at one time.
     57 vectors produced by pass  1 Test12= 5.28D-15 1.67D-09 XBig12= 2.66D-01 7.25D-02.
     57 vectors produced by pass  2 Test12= 5.28D-15 1.67D-09 XBig12= 5.39D-03 1.27D-02.
     57 vectors produced by pass  3 Test12= 5.28D-15 1.67D-09 XBig12= 3.49D-05 8.19D-04.
     57 vectors produced by pass  4 Test12= 5.28D-15 1.67D-09 XBig12= 2.44D-07 9.24D-05.
     57 vectors produced by pass  5 Test12= 5.28D-15 1.67D-09 XBig12= 1.54D-09 6.89D-06.
     33 vectors produced by pass  6 Test12= 5.28D-15 1.67D-09 XBig12= 7.27D-12 2.99D-07.
      4 vectors produced by pass  7 Test12= 5.28D-15 1.67D-09 XBig12= 2.96D-14 1.61D-08.
 InvSVY:  IOpt=1 It=  1 EMax= 3.55D-15
 Solved reduced A of dimension   379 with    60 vectors.
 FullF1:  Do perturbations      1 to      60.
 Saving first derivative matrices.
 End of Minotr F.D. properties file   721 does not exist.
 End of Minotr F.D. properties file   722 does not exist.
 End of Minotr F.D. properties file   788 does not exist.
 Leave Link 1002 at Wed May 11 21:46:07 2022, MaxMem= 67108864000 cpu:              48.3 elap:               1.8
 (Enter /cm/shared/apps/gaussian/intel/EM64T/SSE4_2-enabled/binary//g16/l811.exe)
 MDV= 67108864000.
 Form MO integral derivatives with frozen-active canonical formalism.
 MOERI=1 MOERIx=1 NAtoms=    19 NAtomX=    19.
 Discarding MO integrals.
 MO basis two electron integral derivatives will not be stored on disk.
 IAlg= 3 DoFC=T DoPWx=T Debug=F.
 Reordered first order wavefunction length =     20072448
 In DefCFB: NBatch=  1 ICI= 33 ICA= 96 LFMax= 96
            Large arrays: LIAPS=   210874752 LIARS=   111567456 words.
 In StABat: MaxSiz= 39 MinSiz= 13 NAtomB=  4
 DoIAMN: NPSUse= 28.
 Leave Link  811 at Wed May 11 21:46:48 2022, MaxMem= 67108864000 cpu:            1129.9 elap:              40.4
 (Enter /cm/shared/apps/gaussian/intel/EM64T/SSE4_2-enabled/binary//g16/l804.exe)
 Closed-shell transformation, MDV= 67108864000 ITran=4 ISComp=1.
 Semi-Direct transformation.
 ModeAB=           4 MOrb=            33 LenV=   67108318948
 LASXX=     28702344 LTotXX=    28702344 LenRXX=    58192761
 LTotAB=    29490417 MaxLAS=    32996007 LenRXY=           0
 NonZer=    86895105 LenScr=   131092480 LnRSAI=    32996007
 LnScr1=    50266112 LExtra=           0 Total=    272547360
 MaxDsk=          -1 SrtSym=           T ITran=            4
 DoSDTr:  NPSUse= 28
 JobTyp=0 Pass  1:  I=   1 to  33.
 (rs|ai) integrals will be sorted in core.
 Complete sort for first half transformation.
 First half transformation complete.
 Begin second half transformation for I=  10.
 Begin second half transformation for I=  20.
 Begin second half transformation for I=  30.
 Complete sort for second half transformation.
 Second half transformation complete.
 SymMOI:  orbitals are not symmetric.
 Spin components of T(2) and E(2):
     alpha-alpha T2 =       0.3626223105D-01 E2=     -0.1161841864D+00
     alpha-beta  T2 =       0.2125763833D+00 E2=     -0.6926070477D+00
     beta-beta   T2 =       0.3626223105D-01 E2=     -0.1161841864D+00
 ANorm=    0.1603184859D+01
 E2 =    -0.9249754205D+00 EUMP2 =    -0.25436992718338D+03
 Leave Link  804 at Wed May 11 21:46:53 2022, MaxMem= 67108864000 cpu:             143.6 elap:               5.2
 (Enter /cm/shared/apps/gaussian/intel/EM64T/SSE4_2-enabled/binary//g16/l1002.exe)
 Minotr:  Closed shell wavefunction.
          Computing MP2/KS-MP2 derivatives.
          Using Z-Vector for PSCF gradient.
          Skipping F1 and S1 gradient terms here.
          IDoAtm=1111111111111111111
          Using MO integrals in the linear equations.
          Forming densities via direct SCF.
          Differentiating once with respect to electric field.
                with respect to dipole field.
          Differentiating once with respect to nuclear coordinates.
          Requested convergence is 1.0D-10 RMS, and 1.0D-09 maximum.
          NewPWx=F KeepS1=T KeepF1=T KeepIn=T MapXYZ=F SortEE=F KeepMc=T.
          MDV=   67108864000 using IRadAn=       5.
          Solving linear equations separately, MaxMat=       0.
          There are     1 degrees of freedom in the 1st order CPHF.  IDoFFX=0 NUNeed=     1.
 FoFJK:  IHMeth= 1 ICntrl=       0 DoSepK=F KAlg= 0 I1Cent=           0 FoldK=F
 IRaf=         0 NMat=       1 IRICut=       1 DoRegI=T DoRafI=F ISym2E= 0 IDoP0=0 IntGTp=1.
 FoFCou: FMM=F IPFlag=           0 FMFlag=      100000 FMFlg1=           0
         NFxFlg=           0 DoJE=F BraDBF=F KetDBF=F FulRan=T
         wScrn=  0.000000 ICntrl=         0 IOpCl=  0 I1Cent=           0 NGrid=           0
         NMat0=    1 NMatS0=      1 NMatT0=    0 NMatD0=    1 NMtDS0=    0 NMtDT0=    0
 Symmetry not used in FoFCou.
 LinEq1:  Iter=  0 NonCon=     1 RMS=6.41D-03 Max=1.11D-01 NDo=     1
 LinEq1:  Iter=  1 NonCon=     1 RMS=1.41D-03 Max=1.10D-02 NDo=     1
 LinEq1:  Iter=  2 NonCon=     1 RMS=4.67D-04 Max=9.79D-03 NDo=     1
 LinEq1:  Iter=  3 NonCon=     1 RMS=1.76D-04 Max=2.33D-03 NDo=     1
 LinEq1:  Iter=  4 NonCon=     1 RMS=5.70D-05 Max=1.21D-03 NDo=     1
 LinEq1:  Iter=  5 NonCon=     1 RMS=1.59D-05 Max=1.60D-04 NDo=     1
 LinEq1:  Iter=  6 NonCon=     1 RMS=5.90D-06 Max=6.07D-05 NDo=     1
 LinEq1:  Iter=  7 NonCon=     1 RMS=1.10D-06 Max=1.08D-05 NDo=     1
 LinEq1:  Iter=  8 NonCon=     1 RMS=4.31D-07 Max=5.63D-06 NDo=     1
 LinEq1:  Iter=  9 NonCon=     1 RMS=1.16D-07 Max=1.79D-06 NDo=     1
 LinEq1:  Iter= 10 NonCon=     1 RMS=2.53D-08 Max=3.70D-07 NDo=     1
 LinEq1:  Iter= 11 NonCon=     1 RMS=1.10D-08 Max=1.64D-07 NDo=     1
 LinEq1:  Iter= 12 NonCon=     1 RMS=2.53D-09 Max=4.73D-08 NDo=     1
 LinEq1:  Iter= 13 NonCon=     1 RMS=4.92D-10 Max=6.79D-09 NDo=     1
 LinEq1:  Iter= 14 NonCon=     1 RMS=1.98D-10 Max=1.75D-09 NDo=     1
 LinEq1:  Iter= 15 NonCon=     0 RMS=5.64D-11 Max=5.82D-10 NDo=     1
 Linear equations converged to 1.000D-10 1.000D-09 after    15 iterations.
 End of Minotr F.D. properties file   721 does not exist.
 End of Minotr F.D. properties file   722 does not exist.
 End of Minotr F.D. properties file   788 does not exist.
 Leave Link 1002 at Wed May 11 21:46:55 2022, MaxMem= 67108864000 cpu:              68.3 elap:               2.5
 (Enter /cm/shared/apps/gaussian/intel/EM64T/SSE4_2-enabled/binary//g16/l1102.exe)
 Use density number 2.
 Symmetrizing basis deriv contribution to polar:
 IMax=3 JMax=2 DiffMx= 0.00D+00
 Leave Link 1102 at Wed May 11 21:46:55 2022, MaxMem= 67108864000 cpu:               1.8 elap:               0.1
 (Enter /cm/shared/apps/gaussian/intel/EM64T/SSE4_2-enabled/binary//g16/l1110.exe)
 Forming Gx(P) for generalized density number  2 NAtomX=    19.
 Integral derivatives from FoFJK, PRISM(SPDF).
 Do as many integral derivatives as possible in FoFJK.
 G2DrvN: MDV=   67108862534.
 G2DrvN: will do    20 centers at a time, making    1 passes.
 Calling FoFCou, ICntrl=  3107 FMM=F I1Cent=   0 AccDes= 0.00D+00.
 FoFJK:  IHMeth= 1 ICntrl=    3107 DoSepK=F KAlg= 0 I1Cent=           0 FoldK=F
 IRaf=         0 NMat=       1 IRICut=       1 DoRegI=T DoRafI=F ISym2E= 0 IDoP0=0 IntGTp=1.
 FoFCou: FMM=F IPFlag=           0 FMFlag=      100000 FMFlg1=           0
         NFxFlg=           0 DoJE=F BraDBF=F KetDBF=F FulRan=T
         wScrn=  0.000000 ICntrl=      3107 IOpCl=  0 I1Cent=           0 NGrid=           0
         NMat0=    1 NMatS0=      1 NMatT0=    0 NMatD0=    1 NMtDS0=    0 NMtDT0=    0
 Symmetry not used in FoFCou.
 End of G2Drv F.D. properties file   721 does not exist.
 End of G2Drv F.D. properties file   722 does not exist.
 End of G2Drv F.D. properties file   788 does not exist.
 Leave Link 1110 at Wed May 11 21:46:56 2022, MaxMem= 67108864000 cpu:              11.9 elap:               0.5
 (Enter /cm/shared/apps/gaussian/intel/EM64T/SSE4_2-enabled/binary//g16/l1112.exe)
 MP22nd: MDV=   67108864000
 This link is doing NAtomX=    19 total of    60 degrees of freedom.
 Using ON3 I/O method in MakUI.
 Using Ix for Sx.
 Using OV2 memory method for fx*t*t/D, MaxI=    33 DoOO2=F NP=  28.
 R2 and R3 integrals will be kept in memory, NReq=    71415045.
 FoFCou: FMM=F IPFlag=           0 FMFlag=           0 FMFlg1=           0
         NFxFlg=           0 DoJE=F BraDBF=F KetDBF=F FulRan=T
         wScrn=  0.000000 ICntrl=       600 IOpCl=  0 I1Cent=           0 NGrid=           0
         NMat0=    1 NMatS0=      1 NMatT0=    0 NMatD0=    1 NMtDS0=    0 NMtDT0=    0
 Symmetry not used in FoFCou.
 DD1Dir will call FoFMem   1 times, MxPair=      1122
 NAB=   561 NAA=     0 NBB=     0.
 Symmetry is being used.
 FoFJK:  IHMeth= 1 ICntrl=       0 DoSepK=F KAlg= 0 I1Cent=           0 FoldK=F
 IRaf=         0 NMat=      60 IRICut=     150 DoRegI=T DoRafI=T ISym2E= 2 IDoP0=0 IntGTp=1.
 Discarding MO integrals.
 Leave Link 1112 at Wed May 11 21:47:27 2022, MaxMem= 67108864000 cpu:             876.6 elap:              31.5
 (Enter /cm/shared/apps/gaussian/intel/EM64T/SSE4_2-enabled/binary//g16/l601.exe)
 Copying SCF densities to generalized density rwf, IOpCl= 0 IROHF=0.

 **********************************************************************

            Population analysis using the SCF density.

 **********************************************************************

 Orbital symmetries:
       Occupied  (A) (A) (A) (A) (A) (A) (A) (A) (A) (A) (A) (A)
                 (A) (A) (A) (A) (A) (A) (A) (A) (A) (A) (A) (A)
                 (A) (A) (A) (A) (A) (A) (A) (A) (A)
       Virtual   (A) (A) (A) (A) (A) (A) (A) (A) (A) (A) (A) (A)
                 (A) (A) (A) (A) (A) (A) (A) (A) (A) (A) (A) (A)
                 (A) (A) (A) (A) (A) (A) (A) (A) (A) (A) (A) (A)
                 (A) (A) (A) (A) (A) (A) (A) (A) (A) (A) (A) (A)
                 (A) (A) (A) (A) (A) (A) (A) (A) (A) (A) (A) (A)
                 (A) (A) (A) (A) (A) (A) (A) (A) (A) (A) (A) (A)
                 (A) (A) (A) (A) (A) (A) (A) (A) (A) (A) (A) (A)
                 (A) (A) (A) (A) (A) (A) (A) (A) (A) (A) (A) (A)
 The electronic state is 1-A.
 Alpha  occ. eigenvalues --   -5.39402  -3.39061  -3.38607  -3.38402  -1.70262
 Alpha  occ. eigenvalues --   -1.69012  -1.66263  -1.65903  -1.63562  -1.58321
 Alpha  occ. eigenvalues --   -1.06397  -1.06006  -1.04513  -1.02924  -1.01634
 Alpha  occ. eigenvalues --   -1.01007  -0.98978  -0.98468  -0.96751  -0.96097
 Alpha  occ. eigenvalues --   -0.95330  -0.91254  -0.88475  -0.87337  -0.86778
 Alpha  occ. eigenvalues --   -0.85438  -0.84174  -0.82461  -0.81227  -0.80697
 Alpha  occ. eigenvalues --   -0.78569  -0.75705  -0.75272
 Alpha virt. eigenvalues --   -0.22529  -0.16549  -0.15417  -0.14334  -0.13187
 Alpha virt. eigenvalues --   -0.09801  -0.08888  -0.07706  -0.07091  -0.06161
 Alpha virt. eigenvalues --   -0.05213  -0.04015  -0.02709  -0.02162  -0.01332
 Alpha virt. eigenvalues --   -0.00689   0.00171   0.00771   0.01374   0.01827
 Alpha virt. eigenvalues --    0.02661   0.03524   0.03753   0.04803   0.05700
 Alpha virt. eigenvalues --    0.06390   0.07228   0.08558   0.09375   0.10350
 Alpha virt. eigenvalues --    0.11105   0.13118   0.13836   0.14524   0.15319
 Alpha virt. eigenvalues --    0.17107   0.17738   0.18940   0.21404   0.22593
 Alpha virt. eigenvalues --    0.23418   0.25023   0.27230   0.29370   0.37962
 Alpha virt. eigenvalues --    0.65628   0.68452   0.70251   0.72510   0.93686
 Alpha virt. eigenvalues --    0.95634   1.02197   1.05962   1.06479   1.07980
 Alpha virt. eigenvalues --    1.09225   1.09586   1.10789   1.11157   1.12759
 Alpha virt. eigenvalues --    1.14210   1.15516   1.16459   1.17446   1.18239
 Alpha virt. eigenvalues --    1.19570   1.19607   1.20660   1.21975   1.23001
 Alpha virt. eigenvalues --    1.23725   1.25734   1.26204   1.27547   1.30024
 Alpha virt. eigenvalues --    1.33298   1.33898   1.35150   1.36734   1.38361
 Alpha virt. eigenvalues --    1.39625   1.43270   1.51251   1.61771   2.19401
 Alpha virt. eigenvalues --    2.30008   2.36967   2.63512   2.94876   3.01632
 Alpha virt. eigenvalues --    4.27356  15.51743  41.61851  41.67817  41.75916
 Alpha virt. eigenvalues --   81.50077
          Condensed to atoms (all electrons):
               1          2          3          4          5          6
     1  Hg  18.412406  -0.005961   0.000666   0.000448   0.000253   0.000017
     2  O   -0.005961   6.408413   0.262485   0.260815  -0.000000   0.000000
     3  H    0.000666   0.262485   0.239251  -0.014679   0.000000   0.000000
     4  H    0.000448   0.260815  -0.014679   0.243759   0.000000  -0.000000
     5  O    0.000253  -0.000000   0.000000   0.000000   6.347775   0.262105
     6  H    0.000017   0.000000   0.000000  -0.000000   0.262105   0.236991
     7  H    0.000034  -0.000000   0.000000   0.000000   0.261392  -0.013027
     8  O    0.000690   0.000000   0.000000  -0.000000  -0.058676   0.002324
     9  H    0.000178  -0.000000   0.000000  -0.000000   0.000611  -0.000020
    10  H    0.000083  -0.000000   0.000000   0.000000   0.084122  -0.001563
    11  O    0.014167  -0.006594   0.000051   0.000210  -0.000001  -0.000000
    12  H   -0.003360   0.000347  -0.000000  -0.000001   0.000000   0.000000
    13  H   -0.003760   0.001204   0.000025   0.000005   0.000000   0.000000
    14  O    0.096712  -0.039333   0.000720   0.000323   0.000001  -0.000000
    15  H   -0.002355   0.056424  -0.001503  -0.001425  -0.000000  -0.000000
    16  H   -0.004110   0.000879  -0.000028  -0.000012  -0.000000   0.000000
    17  O    0.152917  -0.000100   0.000002   0.000001  -0.001169   0.000047
    18  H   -0.015430   0.000006  -0.000000  -0.000000   0.000063   0.000000
    19  H    0.000906  -0.000000   0.000000   0.000000   0.000767  -0.000007
               7          8          9         10         11         12
     1  Hg   0.000034   0.000690   0.000178   0.000083   0.014167  -0.003360
     2  O   -0.000000   0.000000  -0.000000  -0.000000  -0.006594   0.000347
     3  H    0.000000   0.000000   0.000000   0.000000   0.000051  -0.000000
     4  H    0.000000  -0.000000  -0.000000   0.000000   0.000210  -0.000001
     5  O    0.261392  -0.058676   0.000611   0.084122  -0.000001   0.000000
     6  H   -0.013027   0.002324  -0.000020  -0.001563  -0.000000   0.000000
     7  H    0.240718   0.001133  -0.000010  -0.001667  -0.000000   0.000000
     8  O    0.001133   6.418702   0.250235   0.161901  -0.000035   0.000000
     9  H   -0.000010   0.250235   0.237123  -0.005135  -0.000000   0.000000
    10  H   -0.001667   0.161901  -0.005135   0.141563  -0.000000   0.000000
    11  O   -0.000000  -0.000035  -0.000000  -0.000000   6.445660   0.263038
    12  H    0.000000   0.000000   0.000000   0.000000   0.263038   0.243900
    13  H   -0.000000   0.000000  -0.000000   0.000000   0.261992  -0.014257
    14  O    0.000000  -0.000007   0.000000   0.000000  -0.007325   0.000165
    15  H    0.000000  -0.000000  -0.000000  -0.000000  -0.000102   0.000011
    16  H   -0.000000   0.000001   0.000000  -0.000000   0.000302  -0.000000
    17  O    0.000022  -0.016916   0.001419  -0.000007  -0.006593   0.000456
    18  H   -0.000000   0.001452   0.000005   0.000002   0.000083  -0.000008
    19  H   -0.000006   0.169687  -0.006784  -0.000363   0.000007   0.000000
              13         14         15         16         17         18
     1  Hg  -0.003760   0.096712  -0.002355  -0.004110   0.152917  -0.015430
     2  O    0.001204  -0.039333   0.056424   0.000879  -0.000100   0.000006
     3  H    0.000025   0.000720  -0.001503  -0.000028   0.000002  -0.000000
     4  H    0.000005   0.000323  -0.001425  -0.000012   0.000001  -0.000000
     5  O    0.000000   0.000001  -0.000000  -0.000000  -0.001169   0.000063
     6  H    0.000000  -0.000000  -0.000000   0.000000   0.000047   0.000000
     7  H   -0.000000   0.000000   0.000000  -0.000000   0.000022  -0.000000
     8  O    0.000000  -0.000007  -0.000000   0.000001  -0.016916   0.001452
     9  H   -0.000000   0.000000  -0.000000   0.000000   0.001419   0.000005
    10  H    0.000000   0.000000  -0.000000  -0.000000  -0.000007   0.000002
    11  O    0.261992  -0.007325  -0.000102   0.000302  -0.006593   0.000083
    12  H   -0.014257   0.000165   0.000011  -0.000000   0.000456  -0.000008
    13  H    0.240645   0.001088  -0.000085  -0.000002   0.000031  -0.000001
    14  O    0.001088   6.536473   0.186146   0.245333  -0.000869  -0.000089
    15  H   -0.000085   0.186146   0.152604  -0.008467   0.000017  -0.000000
    16  H   -0.000002   0.245333  -0.008467   0.232068  -0.000091   0.000000
    17  O    0.000031  -0.000869   0.000017  -0.000091   6.680924   0.244521
    18  H   -0.000001  -0.000089  -0.000000   0.000000   0.244521   0.278203
    19  H   -0.000000   0.000018   0.000000   0.000000   0.055172  -0.002105
              19
     1  Hg   0.000906
     2  O   -0.000000
     3  H    0.000000
     4  H    0.000000
     5  O    0.000767
     6  H   -0.000007
     7  H   -0.000006
     8  O    0.169687
     9  H   -0.006784
    10  H   -0.000363
    11  O    0.000007
    12  H    0.000000
    13  H   -0.000000
    14  O    0.000018
    15  H    0.000000
    16  H    0.000000
    17  O    0.055172
    18  H   -0.002105
    19  H    0.138426
 Mulliken charges:
               1
     1  Hg   1.355499
     2  O   -0.938587
     3  H    0.513011
     4  H    0.510557
     5  O   -0.897242
     6  H    0.513134
     7  H    0.511411
     8  O   -0.930493
     9  H    0.522379
    10  H    0.621064
    11  O   -0.964860
    12  H    0.509709
    13  H    0.513114
    14  O   -1.019357
    15  H    0.618736
    16  H    0.534128
    17  O   -1.109782
    18  H    0.493296
    19  H    0.644281
 Sum of Mulliken charges =   2.00000
 Mulliken charges with hydrogens summed into heavy atoms:
               1
     1  Hg   1.355499
     2  O    0.084981
     5  O    0.127303
     8  O    0.857231
    11  O    0.057964
    14  O    0.133508
    17  O   -0.616486
         Mulliken charges condensed to fragments:
      1      1.355499
      2      0.644501
 APT charges:
               1
     1  Hg   1.400621
     2  O   -0.773598
     3  H    0.385625
     4  H    0.379207
     5  O   -0.818443
     6  H    0.403594
     7  H    0.399200
     8  O   -1.021158
     9  H    0.402116
    10  H    0.881891
    11  O   -0.738561
    12  H    0.349426
    13  H    0.360565
    14  O   -0.894008
    15  H    0.740166
    16  H    0.360410
    17  O   -0.881958
    18  H    0.267396
    19  H    0.797510
 Sum of APT charges =   2.00000
 APT charges with hydrogens summed into heavy atoms:
               1
     1  Hg   1.400621
     2  O   -0.008765
     5  O   -0.015649
     8  O    1.060359
    11  O   -0.028570
    14  O    0.206567
    17  O   -0.614563
         APT charges condensed to fragments:
      1      1.400621
      2      0.599379
 Electronic spatial extent (au):  <R**2>=           2496.2230
 Charge=              2.0000 electrons
 Dipole moment (field-independent basis, Debye):
    X=              3.5005    Y=              0.4410    Z=             -0.7812  Tot=              3.6136
 Quadrupole moment (field-independent basis, Debye-Ang):
   XX=            113.0418   YY=            -36.6737   ZZ=            -48.6235
   XY=              1.9042   XZ=             -3.4499   YZ=              1.7115
 Traceless Quadrupole moment (field-independent basis, Debye-Ang):
   XX=            103.7936   YY=            -45.9219   ZZ=            -57.8717
   XY=              1.9042   XZ=             -3.4499   YZ=              1.7115
 Octapole moment (field-independent basis, Debye-Ang**2):
  XXX=            323.0607  YYY=              6.5069  ZZZ=             -4.4292  XYY=            -30.1708
  XXY=             31.1798  XXZ=             58.0838  XZZ=             11.7151  YZZ=             -5.3822
  YYZ=             -7.2813  XYZ=              1.3290
 Hexadecapole moment (field-independent basis, Debye-Ang**3):
 XXXX=           2575.3755 YYYY=           -138.5759 ZZZZ=            -96.2405 XXXY=            247.9920
 XXXZ=            203.3556 YYYX=            -22.4021 YYYZ=              3.3763 ZZZX=             16.8409
 ZZZY=              5.9694 XXYY=           -376.7947 XXZZ=           -255.5407 YYZZ=            -69.9753
 XXYZ=             54.5760 YYXZ=            -29.6702 ZZXY=            -11.1027
 N-N= 3.222495315348D+02 E-N=-1.190301527422D+03  KE= 1.319982744103D+02
  Exact polarizability:  79.952   2.222  51.267  -1.899  -0.066  45.105
 Approx polarizability:  43.669   1.379  34.340   0.141  -0.100  32.344
 No NMR shielding tensors so no spin-rotation constants.
 Leave Link  601 at Wed May 11 21:47:27 2022, MaxMem= 67108864000 cpu:               3.6 elap:               0.2
 (Enter /cm/shared/apps/gaussian/intel/EM64T/SSE4_2-enabled/binary//g16/l701.exe)
 ... and contract with generalized density number  2.
 Compute integral second derivatives.
   1 Symmetry operations used in ECPInt.
 ECPInt:  NShTT=    2346 NPrTT=    7709 LenC2=    2216 LenP2D=    5603.
 LDataN:  DoStor=T MaxTD1= 9 Len=  602
 Leave Link  701 at Wed May 11 21:47:29 2022, MaxMem= 67108864000 cpu:              38.5 elap:               1.4
 (Enter /cm/shared/apps/gaussian/intel/EM64T/SSE4_2-enabled/binary//g16/l702.exe)
 L702 exits ... SP integral derivatives will be done elsewhere.
 Leave Link  702 at Wed May 11 21:47:29 2022, MaxMem= 67108864000 cpu:               0.8 elap:               0.1
 (Enter /cm/shared/apps/gaussian/intel/EM64T/SSE4_2-enabled/binary//g16/l703.exe)
 Integral derivatives from FoFJK, PRISM(SPDF).
 Compute integral second derivatives, UseDBF=F ICtDFT=           0.
 Calling FoFJK, ICntrl=  10100127 FMM=F ISym2X=0 I1Cent= 0 IOpClX= 0 NMat=1 NMatS=1 NMatT=0.
 FoFJK:  IHMeth= 1 ICntrl=10100127 DoSepK=F KAlg= 0 I1Cent=           0 FoldK=F
 IRaf=         0 NMat=       1 IRICut=       1 DoRegI=T DoRafI=F ISym2E= 0 IDoP0=0 IntGTp=1.
 FoFCou: FMM=F IPFlag=           0 FMFlag=      100000 FMFlg1=         800
         NFxFlg=           0 DoJE=F BraDBF=F KetDBF=F FulRan=T
         wScrn=  0.000000 ICntrl=  10100127 IOpCl=  0 I1Cent=           0 NGrid=           0
         NMat0=    1 NMatS0=      1 NMatT0=    0 NMatD0=    1 NMtDS0=    0 NMtDT0=    0
 Symmetry not used in FoFCou.
 Leave Link  703 at Wed May 11 21:47:30 2022, MaxMem= 67108864000 cpu:              19.3 elap:               0.7
 (Enter /cm/shared/apps/gaussian/intel/EM64T/SSE4_2-enabled/binary//g16/l716.exe)
 Dipole        = 1.49178942D+00 2.54761037D-01-2.53210723D-01
 Polarizability= 7.99516400D+01 2.22176388D+00 5.12670476D+01
                -1.89893724D+00-6.63737665D-02 4.51052581D+01
 Full mass-weighted force constant matrix:
 Low frequencies --- -415.3652 -331.2571 -219.8921 -181.4447 -108.0915  -93.0105
 Low frequencies ---  -37.1341  -32.2970  -11.6638
 ******    7 imaginary frequencies (negative Signs) ****** 
 Diagonal vibrational polarizability:
     5296.3682849    1963.1854220    1255.4244783
 Harmonic frequencies (cm**-1), IR intensities (KM/Mole), Raman scattering
 activities (A**4/AMU), depolarization ratios for plane and unpolarized
 incident light, reduced masses (AMU), force constants (mDyne/A),
 and normal coordinates:
                      1                      2                      3
                      A                      A                      A
 Frequencies --   -415.0552              -329.9611              -208.1796
 Red. masses --      1.0181                 1.0262                 1.0747
 Frc consts  --      0.1033                 0.0658                 0.0274
 IR Inten    --     11.4756                49.0257                11.4272
  Atom  AN      X      Y      Z        X      Y      Z        X      Y      Z
     1  80    -0.00  -0.00   0.00    -0.00  -0.00   0.00     0.00   0.00  -0.00
     2   8    -0.01  -0.01  -0.02    -0.00   0.00  -0.00     0.01   0.00   0.01
     3   1     0.10   0.24   0.01     0.00   0.02  -0.01     0.19   0.59   0.04
     4   1    -0.09  -0.23   0.13    -0.00  -0.01   0.00    -0.13  -0.52   0.32
     5   8     0.00   0.00  -0.01    -0.00  -0.01   0.02    -0.00  -0.03   0.03
     6   1     0.00   0.00  -0.01     0.39  -0.42  -0.39    -0.03  -0.04   0.04
     7   1    -0.00   0.00  -0.01    -0.35   0.60   0.13     0.03  -0.04   0.05
     8   8    -0.00   0.00  -0.00     0.00   0.00  -0.00     0.00   0.00  -0.02
     9   1    -0.00  -0.00  -0.00     0.00   0.01  -0.01     0.00   0.03  -0.04
    10   1    -0.00   0.00  -0.00     0.00   0.03  -0.03    -0.00  -0.01  -0.00
    11   8     0.01   0.01   0.00     0.00  -0.00  -0.01    -0.03  -0.02  -0.00
    12   1    -0.00  -0.08   0.65     0.00   0.00  -0.02    -0.10   0.06  -0.38
    13   1     0.00   0.09  -0.64     0.00  -0.00  -0.01    -0.03  -0.12   0.10
    14   8     0.00   0.01   0.01    -0.00   0.01   0.01     0.01  -0.01   0.01
    15   1     0.00   0.02   0.03    -0.00   0.00   0.00     0.01  -0.01   0.08
    16   1    -0.01   0.01   0.00    -0.00   0.00   0.02     0.01  -0.01  -0.02
    17   8    -0.00   0.00  -0.00    -0.00  -0.01  -0.00     0.00   0.01   0.02
    18   1    -0.01   0.02   0.02    -0.00  -0.04  -0.04     0.02   0.10   0.11
    19   1    -0.00   0.00  -0.00    -0.01  -0.01   0.01    -0.00   0.01  -0.00
                      4                      5                      6
                      A                      A                      A
 Frequencies --   -168.8081              -104.6496               -67.4497
 Red. masses --      1.3389                 2.6870                 3.2844
 Frc consts  --      0.0225                 0.0173                 0.0088
 IR Inten    --     35.1085                 3.0024                12.7489
  Atom  AN      X      Y      Z        X      Y      Z        X      Y      Z
     1  80     0.00  -0.01   0.00     0.00   0.00   0.01     0.00   0.03  -0.01
     2   8     0.01   0.03  -0.02    -0.00  -0.06  -0.17    -0.01  -0.09  -0.13
     3   1    -0.03  -0.09  -0.03    -0.31  -0.00  -0.35    -0.15   0.06  -0.23
     4   1     0.04   0.14  -0.09     0.26  -0.19  -0.38     0.11  -0.29  -0.19
     5   8    -0.01   0.01  -0.05    -0.02  -0.08   0.05     0.07  -0.04  -0.15
     6   1     0.04   0.01  -0.07    -0.17  -0.19   0.08     0.29   0.10  -0.21
     7   1    -0.04   0.04  -0.07     0.11  -0.10   0.19    -0.10  -0.03  -0.37
     8   8    -0.01  -0.03  -0.03     0.01   0.04  -0.16    -0.07  -0.11   0.18
     9   1    -0.01   0.01  -0.06     0.02   0.15  -0.23    -0.11  -0.30   0.29
    10   1    -0.02  -0.03  -0.04    -0.00   0.01  -0.10    -0.01  -0.11   0.08
    11   8    -0.01   0.01  -0.05    -0.01   0.00   0.02    -0.10  -0.06   0.14
    12   1    -0.13   0.04   0.02    -0.03   0.01   0.03    -0.21  -0.01   0.10
    13   1    -0.02  -0.11  -0.07    -0.01  -0.02   0.04    -0.10  -0.20   0.16
    14   8    -0.00  -0.00  -0.00     0.05   0.05   0.18     0.04  -0.02   0.04
    15   1    -0.00  -0.01  -0.03     0.03   0.02   0.13     0.03  -0.06   0.05
    16   1    -0.00  -0.01   0.02     0.06   0.01   0.39     0.07  -0.04   0.08
    17   8     0.02   0.02   0.11    -0.02   0.02  -0.05     0.02   0.01   0.02
    18   1     0.07   0.63   0.70    -0.05   0.08   0.01     0.06  -0.02  -0.01
    19   1    -0.01  -0.02  -0.01    -0.01   0.04  -0.11    -0.02  -0.05   0.10
                      7                      8                      9
                      A                      A                      A
 Frequencies --     -3.5406                44.4388                55.0042
 Red. masses --      3.4986                 4.8050                 4.4077
 Frc consts  --      0.0000                 0.0056                 0.0079
 IR Inten    --      3.5213                10.3529                12.4865
  Atom  AN      X      Y      Z        X      Y      Z        X      Y      Z
     1  80     0.01  -0.00   0.01    -0.02   0.00   0.04     0.02   0.05   0.01
     2   8     0.07   0.24  -0.05    -0.04   0.01  -0.08    -0.06  -0.19   0.13
     3   1     0.09   0.16  -0.03     0.00  -0.05  -0.05     0.02  -0.52   0.22
     4   1     0.03   0.33  -0.05    -0.07   0.08  -0.07    -0.12   0.07   0.11
     5   8    -0.06   0.06   0.03     0.33  -0.14  -0.07    -0.09  -0.13   0.07
     6   1    -0.11   0.07   0.06     0.26  -0.26  -0.09    -0.16  -0.18   0.09
     7   1    -0.03   0.08   0.07     0.40  -0.22  -0.04    -0.03  -0.12   0.15
     8   8     0.05  -0.01  -0.06     0.08   0.17  -0.03    -0.02  -0.13  -0.06
     9   1     0.10   0.03  -0.07    -0.02   0.22  -0.10     0.00  -0.11  -0.06
    10   1     0.00   0.02  -0.03     0.18   0.10  -0.04    -0.04  -0.14  -0.03
    11   8    -0.19  -0.17   0.08    -0.10  -0.05  -0.12    -0.16  -0.07  -0.19
    12   1    -0.49  -0.08   0.25    -0.15  -0.04  -0.08    -0.32  -0.04   0.01
    13   1    -0.21  -0.50  -0.01    -0.10  -0.11  -0.18    -0.17  -0.22  -0.30
    14   8    -0.02  -0.00  -0.02    -0.06  -0.05  -0.13     0.04  -0.03  -0.03
    15   1     0.03   0.02  -0.05    -0.05  -0.03  -0.13     0.01  -0.11  -0.06
    16   1    -0.04   0.00  -0.04    -0.06  -0.02  -0.26     0.12  -0.04  -0.04
    17   8     0.02  -0.08  -0.06    -0.03   0.06   0.04     0.03  -0.04  -0.05
    18   1     0.01  -0.12  -0.10    -0.08  -0.16  -0.18     0.05  -0.03  -0.04
    19   1     0.03  -0.06  -0.07     0.06   0.17   0.08    -0.01  -0.11  -0.07
                     10                     11                     12
                      A                      A                      A
 Frequencies --     71.1379                79.3643               126.7865
 Red. masses --      4.8169                 5.4877                 6.8873
 Frc consts  --      0.0144                 0.0204                 0.0652
 IR Inten    --     16.1440                16.4085                 2.1415
  Atom  AN      X      Y      Z        X      Y      Z        X      Y      Z
     1  80     0.01  -0.02  -0.03     0.03   0.00   0.06    -0.07   0.05  -0.01
     2   8     0.15   0.09   0.11     0.09   0.02  -0.17     0.32  -0.01  -0.03
     3   1     0.17  -0.10   0.15     0.13   0.17  -0.17     0.32  -0.01  -0.03
     4   1     0.12   0.32   0.06     0.06  -0.07  -0.10     0.30   0.14  -0.05
     5   8     0.03  -0.11   0.07    -0.20  -0.02  -0.11     0.04   0.02   0.03
     6   1     0.03  -0.20   0.02    -0.17   0.01  -0.11     0.03   0.03   0.04
     7   1     0.04  -0.15   0.06    -0.22  -0.01  -0.12     0.05   0.03   0.04
     8   8    -0.20   0.13   0.15    -0.20  -0.03  -0.08     0.11  -0.04  -0.02
     9   1    -0.25  -0.04   0.24    -0.22  -0.10  -0.04     0.13   0.05  -0.07
    10   1    -0.11   0.05   0.11    -0.18  -0.05  -0.10     0.07  -0.01   0.00
    11   8    -0.05  -0.05  -0.06     0.09   0.02  -0.05     0.16  -0.06  -0.06
    12   1    -0.14  -0.04   0.13     0.13   0.03  -0.18     0.14  -0.07   0.05
    13   1    -0.05  -0.15  -0.10     0.09   0.06  -0.04     0.16  -0.10  -0.09
    14   8     0.08  -0.04   0.14    -0.00  -0.14  -0.19     0.12  -0.32   0.08
    15   1     0.09  -0.05   0.07     0.02  -0.09  -0.14     0.11  -0.37   0.06
    16   1     0.10  -0.07   0.28    -0.00  -0.08  -0.48     0.25  -0.32   0.00
    17   8    -0.09   0.22  -0.08    -0.07   0.14  -0.08     0.02  -0.13   0.05
    18   1    -0.17   0.26  -0.03    -0.18  -0.03  -0.24     0.11  -0.13   0.04
    19   1    -0.12   0.25   0.02    -0.15   0.07  -0.14     0.06  -0.12   0.06
                     13                     14                     15
                      A                      A                      A
 Frequencies --    186.8178               203.9837               255.6428
 Red. masses --      5.3098                 3.6752                 1.2304
 Frc consts  --      0.1092                 0.0901                 0.0474
 IR Inten    --      6.3976                56.1021                48.7598
  Atom  AN      X      Y      Z        X      Y      Z        X      Y      Z
     1  80     0.00  -0.02   0.01    -0.00  -0.02  -0.01    -0.00  -0.00   0.00
     2   8     0.12  -0.03  -0.01     0.09   0.02  -0.01     0.03  -0.04  -0.08
     3   1     0.10  -0.01  -0.02     0.07   0.00  -0.02     0.51  -0.14   0.21
     4   1     0.13  -0.04  -0.02     0.12   0.04  -0.03    -0.37   0.20   0.24
     5   8     0.05   0.01   0.03    -0.06  -0.01  -0.03     0.00  -0.00  -0.01
     6   1     0.05  -0.02   0.02    -0.05   0.10   0.02     0.00  -0.01  -0.01
     7   1     0.05   0.01   0.03    -0.09   0.03  -0.04     0.00  -0.02  -0.02
     8   8     0.02   0.02   0.04     0.08  -0.09  -0.04    -0.02   0.01  -0.01
     9   1     0.08  -0.09   0.14     0.01   0.06  -0.17    -0.02   0.04  -0.03
    10   1     0.00   0.05   0.03     0.10  -0.08  -0.01    -0.02  -0.00  -0.01
    11   8    -0.19   0.39   0.02    -0.17   0.14  -0.03     0.01   0.01   0.04
    12   1    -0.39   0.46   0.02    -0.02   0.07   0.01    -0.04   0.04  -0.06
    13   1    -0.19   0.18   0.02    -0.16   0.29  -0.04     0.01  -0.04   0.02
    14   8     0.04  -0.06  -0.03     0.04   0.00   0.03    -0.01   0.05  -0.01
    15   1     0.04  -0.02   0.01     0.05   0.04   0.02    -0.05  -0.08  -0.36
    16   1     0.04  -0.02  -0.20     0.01   0.00   0.07     0.14  -0.07   0.50
    17   8    -0.04  -0.16  -0.20     0.02   0.18   0.24     0.00  -0.02   0.01
    18   1    -0.04   0.30   0.25     0.00  -0.57  -0.50     0.01  -0.03  -0.01
    19   1     0.03  -0.02  -0.10     0.08  -0.07   0.14    -0.03   0.01   0.01
                     16                     17                     18
                      A                      A                      A
 Frequencies --    288.6362               323.9506               335.6280
 Red. masses --      3.0769                 1.1626                 2.6890
 Frc consts  --      0.1510                 0.0719                 0.1785
 IR Inten    --    153.4382                49.9632                45.7328
  Atom  AN      X      Y      Z        X      Y      Z        X      Y      Z
     1  80    -0.01  -0.00   0.01     0.00  -0.00   0.00    -0.01  -0.00   0.01
     2   8    -0.07   0.02  -0.03    -0.03   0.01   0.00     0.19  -0.08   0.02
     3   1     0.08  -0.00   0.06    -0.03   0.01   0.00     0.13  -0.06  -0.02
     4   1    -0.20   0.09   0.08    -0.03   0.02   0.00     0.27  -0.17  -0.03
     5   8     0.03   0.02   0.02     0.02  -0.01   0.06     0.03   0.01   0.04
     6   1    -0.01   0.08   0.07     0.42   0.38   0.03     0.15   0.13   0.02
     7   1     0.01   0.13   0.09    -0.27  -0.09  -0.39    -0.07  -0.01  -0.10
     8   8     0.20  -0.14   0.01    -0.01  -0.04  -0.02     0.02  -0.04  -0.01
     9   1     0.23  -0.47   0.25     0.11   0.43  -0.30     0.08   0.01  -0.02
    10   1     0.22  -0.04  -0.02    -0.09  -0.19   0.28    -0.01  -0.08   0.08
    11   8     0.02  -0.01   0.01     0.01   0.01  -0.01    -0.07  -0.11   0.01
    12   1     0.02  -0.00  -0.03    -0.07   0.04   0.00     0.43  -0.28  -0.08
    13   1     0.02  -0.01   0.02     0.01  -0.08  -0.01    -0.05   0.44   0.01
    14   8    -0.03  -0.05   0.03    -0.00  -0.02   0.01     0.00   0.18  -0.08
    15   1    -0.02  -0.09  -0.08    -0.00  -0.04   0.01     0.01   0.30  -0.02
    16   1     0.01  -0.08   0.12     0.01  -0.03   0.03    -0.11   0.21  -0.15
    17   8    -0.06   0.21  -0.14    -0.01   0.02  -0.04    -0.04   0.02  -0.06
    18   1    -0.24   0.34   0.00    -0.03   0.02  -0.04    -0.04   0.22   0.14
    19   1     0.32  -0.07  -0.24    -0.02  -0.00   0.06     0.04  -0.03  -0.06
                     19                     20                     21
                      A                      A                      A
 Frequencies --    374.8333               447.8723               471.9888
 Red. masses --      1.5930                 3.7154                 1.4080
 Frc consts  --      0.1319                 0.4391                 0.1848
 IR Inten    --    132.3424               325.7778               149.3515
  Atom  AN      X      Y      Z        X      Y      Z        X      Y      Z
     1  80     0.01   0.01  -0.00    -0.00  -0.00   0.00    -0.00   0.00   0.00
     2   8    -0.07   0.06  -0.04    -0.01   0.01   0.01    -0.01   0.03   0.06
     3   1     0.06   0.02   0.05    -0.05   0.04  -0.02    -0.29   0.22  -0.12
     4   1    -0.19   0.09   0.07     0.02  -0.00  -0.02     0.21  -0.11  -0.12
     5   8     0.00  -0.01   0.00     0.22   0.19   0.12    -0.01  -0.01  -0.01
     6   1     0.03  -0.01  -0.01     0.14  -0.01   0.08    -0.00   0.01  -0.00
     7   1    -0.01  -0.03  -0.03     0.38   0.15   0.28    -0.02  -0.01  -0.02
     8   8    -0.02   0.01  -0.00    -0.20  -0.16  -0.12     0.01   0.01   0.01
     9   1    -0.01   0.04  -0.01    -0.29  -0.35  -0.03     0.02  -0.01   0.03
    10   1    -0.03  -0.00   0.01    -0.25  -0.29  -0.33     0.01   0.02   0.02
    11   8    -0.10  -0.02   0.01    -0.01   0.01  -0.00    -0.01   0.00  -0.02
    12   1     0.56  -0.25  -0.07    -0.01   0.01   0.03     0.08  -0.05   0.10
    13   1    -0.07   0.67   0.04    -0.01   0.00   0.02    -0.01   0.08   0.09
    14   8     0.02  -0.10   0.05     0.00  -0.01  -0.01     0.04  -0.01  -0.14
    15   1     0.06  -0.08  -0.05    -0.01  -0.03   0.01    -0.02  -0.14  -0.01
    16   1     0.02  -0.09  -0.00     0.01  -0.04   0.11     0.16  -0.20   0.80
    17   8     0.02  -0.04  -0.01     0.03   0.03   0.02    -0.00  -0.01  -0.01
    18   1     0.07   0.11   0.12     0.04  -0.10  -0.10    -0.01   0.01   0.01
    19   1    -0.03  -0.00  -0.00    -0.19   0.00  -0.11     0.01  -0.00  -0.01
                     22                     23                     24
                      A                      A                      A
 Frequencies --    487.2974               549.5765               574.5706
 Red. masses --      1.3725                 4.2592                 1.1973
 Frc consts  --      0.1920                 0.7579                 0.2329
 IR Inten    --     59.8637                54.6829               375.5833
  Atom  AN      X      Y      Z        X      Y      Z        X      Y      Z
     1  80     0.00  -0.00   0.00    -0.02  -0.01   0.00    -0.00  -0.00   0.00
     2   8    -0.01   0.00   0.00    -0.11   0.07  -0.03    -0.01   0.00  -0.02
     3   1    -0.01  -0.01   0.00    -0.02  -0.23   0.06     0.10   0.05   0.04
     4   1    -0.00  -0.00   0.00    -0.16   0.03   0.04    -0.10  -0.12   0.10
     5   8     0.01   0.04  -0.05     0.01  -0.00   0.01     0.00   0.00   0.00
     6   1    -0.26  -0.27  -0.04     0.04   0.07   0.03     0.00  -0.02  -0.01
     7   1     0.23   0.07   0.27    -0.03   0.03  -0.01     0.01  -0.02  -0.01
     8   8     0.01  -0.09   0.09     0.01  -0.00  -0.02     0.00  -0.00  -0.00
     9   1    -0.08   0.60  -0.44    -0.00  -0.13   0.07     0.03  -0.01   0.01
    10   1     0.04   0.04  -0.07     0.02  -0.01  -0.00    -0.01   0.02   0.01
    11   8     0.00  -0.00   0.01     0.03  -0.02   0.05     0.00   0.01  -0.09
    12   1     0.01  -0.01  -0.00    -0.07   0.07  -0.32     0.05  -0.11   0.59
    13   1     0.00   0.01  -0.00     0.01  -0.03  -0.36     0.01  -0.08   0.73
    14   8     0.01   0.00  -0.01     0.39   0.08  -0.07     0.04   0.02   0.01
    15   1     0.01   0.00  -0.00     0.38   0.04   0.01     0.04   0.00  -0.04
    16   1     0.01   0.00  -0.01     0.37   0.14  -0.33     0.06   0.05  -0.15
    17   8    -0.04   0.02  -0.05    -0.15  -0.04   0.05    -0.03  -0.01   0.01
    18   1     0.01   0.10   0.02    -0.10  -0.06   0.02    -0.04  -0.01   0.01
    19   1    -0.03  -0.05   0.35     0.00  -0.04  -0.02    -0.00  -0.03  -0.02
                     25                     26                     27
                      A                      A                      A
 Frequencies --    588.0989               645.2739               692.9171
 Red. masses --      1.0609                 8.1843                 1.1750
 Frc consts  --      0.2162                 2.0078                 0.3324
 IR Inten    --    204.9786               128.1654               269.7097
  Atom  AN      X      Y      Z        X      Y      Z        X      Y      Z
     1  80    -0.00  -0.00   0.00    -0.06  -0.02   0.02    -0.00   0.00   0.00
     2   8    -0.00   0.00   0.00    -0.04   0.04  -0.02     0.00   0.00  -0.00
     3   1    -0.01  -0.01  -0.00     0.03  -0.17   0.05     0.00  -0.03   0.01
     4   1     0.00   0.01  -0.01    -0.07  -0.14   0.07     0.00  -0.04   0.01
     5   8    -0.01   0.05   0.01    -0.03  -0.01  -0.02     0.05  -0.06  -0.05
     6   1     0.06  -0.40  -0.23    -0.04  -0.06  -0.04    -0.20   0.36   0.27
     7   1     0.15  -0.35  -0.15    -0.00  -0.03   0.00    -0.06   0.48   0.32
     8   8    -0.01  -0.02   0.00    -0.01   0.03   0.03    -0.05  -0.00   0.01
     9   1     0.51   0.12   0.12    -0.09   0.14  -0.08     0.45   0.18   0.07
    10   1    -0.28   0.25   0.13    -0.01  -0.09  -0.03    -0.21   0.11   0.09
    11   8     0.00   0.00   0.01    -0.00   0.02  -0.01    -0.00   0.00   0.00
    12   1    -0.01   0.01  -0.03    -0.04   0.01   0.11     0.00  -0.00   0.00
    13   1    -0.00  -0.00  -0.04    -0.00  -0.06   0.12    -0.00   0.00   0.00
    14   8     0.00   0.00  -0.00     0.18   0.05  -0.04    -0.00  -0.00  -0.00
    15   1     0.00   0.00   0.00     0.17   0.08  -0.01     0.00   0.00  -0.00
    16   1     0.00   0.00  -0.00     0.13   0.08  -0.16    -0.00  -0.00   0.00
    17   8     0.01   0.02   0.01     0.58   0.14  -0.16     0.01   0.01   0.01
    18   1     0.00  -0.03  -0.03     0.47   0.17  -0.13    -0.00  -0.01  -0.01
    19   1    -0.09  -0.27  -0.28     0.03   0.25  -0.01    -0.09  -0.19  -0.25
                     28                     29                     30
                      A                      A                      A
 Frequencies --    702.0219               943.2248               982.9604
 Red. masses --      1.1515                 1.0850                 1.0924
 Frc consts  --      0.3344                 0.5688                 0.6219
 IR Inten    --    410.7835                92.2078                42.8372
  Atom  AN      X      Y      Z        X      Y      Z        X      Y      Z
     1  80    -0.00  -0.00   0.00     0.00  -0.00  -0.00    -0.00  -0.00   0.00
     2   8    -0.01  -0.09   0.01     0.01   0.03   0.01     0.00   0.01   0.00
     3   1    -0.02   0.66  -0.10    -0.07  -0.06  -0.02    -0.02  -0.01  -0.00
     4   1    -0.10   0.68  -0.13     0.07  -0.15  -0.01     0.02  -0.03  -0.00
     5   8     0.00  -0.00  -0.00    -0.00   0.00  -0.00     0.00  -0.01   0.01
     6   1    -0.01   0.02   0.01    -0.00  -0.01  -0.01     0.02   0.06   0.03
     7   1    -0.00   0.02   0.02     0.01  -0.00   0.00    -0.03   0.00  -0.03
     8   8    -0.00   0.00   0.00    -0.00  -0.00   0.00     0.02   0.02  -0.02
     9   1     0.02   0.01   0.00     0.00   0.02  -0.01    -0.04  -0.11   0.06
    10   1    -0.01   0.00   0.00     0.01  -0.02   0.01    -0.04   0.10  -0.06
    11   8    -0.01  -0.00  -0.00    -0.01  -0.00   0.01     0.00   0.00  -0.00
    12   1     0.01  -0.01   0.02     0.04  -0.01  -0.01    -0.01   0.00   0.01
    13   1    -0.00   0.01   0.02    -0.00   0.04  -0.04     0.00  -0.01  -0.00
    14   8     0.03   0.03   0.00    -0.05   0.04   0.02    -0.01   0.01   0.00
    15   1    -0.07  -0.11   0.06    -0.30  -0.37  -0.09    -0.07  -0.07  -0.04
    16   1     0.13   0.04  -0.13     0.79  -0.02  -0.22     0.16  -0.01  -0.04
    17   8     0.01   0.00  -0.00     0.01  -0.00   0.00    -0.05   0.03  -0.03
    18   1     0.01   0.01   0.00    -0.17  -0.00   0.01     0.82   0.05  -0.07
    19   1    -0.00  -0.00  -0.01     0.04   0.07  -0.05    -0.23  -0.35   0.26
                     31                     32                     33
                      A                      A                      A
 Frequencies --   1208.0222              1280.8285              1475.1783
 Red. masses --      1.0536                 1.0542                 1.0760
 Frc consts  --      0.9059                 1.0189                 1.3796
 IR Inten    --    112.6314               218.9387               853.9375
  Atom  AN      X      Y      Z        X      Y      Z        X      Y      Z
     1  80    -0.00  -0.00   0.00     0.00  -0.00   0.00    -0.00  -0.00   0.00
     2   8    -0.00   0.00   0.00     0.01   0.00  -0.04     0.00  -0.00  -0.00
     3   1    -0.01   0.01  -0.00     0.14  -0.16   0.07     0.00   0.00   0.00
     4   1     0.01  -0.00  -0.00    -0.14   0.07   0.08     0.00   0.00  -0.00
     5   8    -0.01   0.01  -0.02    -0.00  -0.00  -0.00     0.02  -0.01   0.03
     6   1    -0.04  -0.10  -0.05    -0.00  -0.00  -0.00    -0.01   0.07   0.07
     7   1     0.07   0.01   0.07     0.00  -0.00   0.00    -0.17  -0.01  -0.19
     8   8    -0.01  -0.01   0.01     0.00   0.00   0.00    -0.03  -0.04   0.02
     9   1     0.16   0.09   0.00     0.01   0.00   0.00    -0.18   0.09  -0.16
    10   1     0.06  -0.31   0.18    -0.00  -0.01   0.00     0.29   0.69  -0.31
    11   8     0.00   0.00  -0.00    -0.00   0.00  -0.00     0.00   0.00  -0.00
    12   1    -0.00   0.00   0.00     0.03  -0.02   0.01     0.00  -0.00  -0.00
    13   1     0.00  -0.01  -0.00    -0.00  -0.00   0.02     0.00  -0.00  -0.00
    14   8    -0.00  -0.00   0.00    -0.00   0.01  -0.04    -0.00   0.00  -0.00
    15   1     0.00   0.01  -0.04    -0.20  -0.16   0.92     0.01  -0.00   0.01
    16   1     0.00  -0.00  -0.00     0.02  -0.00   0.08    -0.00   0.00   0.00
    17   8    -0.04  -0.01   0.01    -0.00   0.00  -0.00    -0.00  -0.01   0.01
    18   1     0.51  -0.02  -0.05     0.03   0.00  -0.00     0.13  -0.01  -0.01
    19   1     0.30   0.56  -0.37     0.01   0.02  -0.01     0.13   0.09  -0.39
                     34                     35                     36
                      A                      A                      A
 Frequencies --   1583.1238              1718.5841              1732.5453
 Red. masses --      1.0765                 1.0877                 1.0896
 Frc consts  --      1.5896                 1.8927                 1.9270
[...]
 0.00013925,0.00006492,0.00005406,-0.00001142,0.00007375,-0.00000397,0.
 00002530,0.46478833,-0.00142572,-0.00103037,0.00045808,0.00025272,0.00
 021099,0.00013167,-0.00001270,-0.00008674,0.00000069,-0.00004977,-0.00
 003125,-0.00002076,-0.08346218,0.11775597,0.00002131,-0.00000726,-0.00
 040225,0.00000607,0.00002316,0.00006307,-0.00000273,-0.00000570,-0.000
 02672,0.00000541,-0.00000362,-0.00002703,-0.06064744,-0.14248656,0.670
 04511,-0.00029119,0.00010873,-0.00010969,0.00007260,0.00001341,0.00003
 399,-0.00002250,-0.00000011,-0.00000438,-0.00001377,0.00000718,-0.0000
 1042,-0.14356478,0.07377262,-0.18661124,0.13166374,0.00016737,0.000261
 41,-0.00006662,-0.00003087,-0.00005225,-0.00002051,-0.00000724,0.00002
 554,-0.00000050,0.00000607,0.00001373,0.00000150,0.05373691,-0.0503216
 9,0.10040332,-0.06275624,0.04477631,-0.00022929,-0.00004736,0.00025490
 ,0.00003157,0.00000681,-0.00002055,-0.00000315,-0.00000291,0.00001692,
 -0.00000923,0.00000121,0.00001282,-0.13310133,0.10459062,-0.37095248,0
 .15876611,-0.11489411,0.39708607,-0.00031673,-0.00001049,0.00017398,0.
 00007240,0.00001572,0.00001033,-0.00001702,-0.00000388,0.00000751,-0.0
 0001621,0.00000528,0.00000069,-0.27153866,-0.01268548,0.24367955,0.012
 11328,0.00382347,-0.02439456,0.26267765,0.00006994,0.00018343,0.000006
 95,-0.00001554,-0.00004084,-0.00002329,-0.00000582,0.00001936,0.000005
 17,0.00000286,0.00001285,0.00000430,-0.00912972,-0.02683933,0.03890551
 ,-0.01095106,0.00619345,0.01085835,0.01294347,0.01750824,0.00013857,0.
 00006796,0.00015174,-0.00003040,-0.00002577,-0.00004659,0.00000528,0.0
 0000737,0.00001418,0.00000222,0.00000229,0.00001788,0.18622385,0.03770
 943,-0.26726160,0.03832025,0.00494700,-0.02970339,-0.22640951,-0.04165
 618,0.29358618,0.00719759,0.00160049,-0.00434045,-0.00115316,-0.000528
 73,-0.00039277,0.00017033,0.00018098,-0.00006013,0.00022988,-0.0000186
 7,0.00005847,-0.04221468,0.04815670,0.00296401,-0.00311851,0.00102273,
 0.00556796,-0.00079442,0.00350795,-0.00457848,0.49031329,-0.00019821,-
 0.00063872,-0.00115571,-0.00002526,0.00007690,0.00003603,0.00002300,-0
 .00003974,-0.00001328,0.00000228,-0.00003783,-0.00000939,0.04363418,-0
 .02101112,-0.00329515,0.00304084,-0.00280363,-0.00348964,0.00317138,-0
 .00550043,0.00339588,0.08476502,0.64973958,0.00154123,-0.00005739,-0.0
 0381813,-0.00033304,-0.00009509,0.00001657,0.00004537,0.00003286,-0.00
 007328,0.00007641,-0.00002011,-0.00003743,0.00148806,-0.00085281,0.015
 97257,0.00272593,-0.00270340,-0.00239467,-0.00175558,0.00160489,-0.000
 78698,0.09608223,-0.03654047,0.14960523,-0.00106680,-0.00064515,-0.000
 18443,0.00015546,0.00008838,0.00006664,-0.00002275,-0.00002983,0.00000
 295,-0.00003352,-0.00000725,-0.00001138,-0.00671285,0.00100433,0.00109
 612,-0.00022133,0.00092842,-0.00014606,-0.00094205,0.00175163,0.000092
 26,-0.09816655,-0.09833034,0.00386620,0.08729971,-0.00068509,0.0001569
 1,0.00036873,0.00013060,0.00001534,0.00002835,-0.00002870,0.00000172,0
 .00001003,-0.00002251,0.00002356,-0.00000297,0.00084693,0.00213908,-0.
 00113424,0.00011332,-0.00030948,0.00018529,0.00069009,-0.00090206,-0.0
 0000015,-0.10172226,-0.44054166,0.06251498,0.11059848,0.46335932,-0.00
 034325,0.00023246,0.00057656,0.00001812,-0.00002060,-0.00005975,-0.000
 00540,0.00000833,0.00002643,-0.00001139,0.00000557,0.00002961,0.000464
 19,-0.00046797,-0.00093882,0.00004012,0.00056945,0.00044429,0.00060376
 ,-0.00048324,0.00043339,0.01399542,0.10032301,-0.03553182,-0.00910993,
 -0.07650319,0.02640049,-0.00379355,-0.00139482,0.00089370,0.00068779,0
 .00036482,0.00027675,-0.00010156,-0.00012834,0.00001846,-0.00013932,-0
 .00001181,-0.00004619,-0.00353998,-0.02353095,-0.00138148,0.00313642,0
 .00242192,-0.00629859,-0.00094130,0.00108471,0.00609205,-0.09703776,0.
 02458826,-0.00183348,0.02051664,-0.01060948,0.00070610,0.09305482,0.00
 256036,0.00147207,-0.00093756,-0.00047548,-0.00031132,-0.00020831,0.00
 004887,0.00011964,-0.00001215,0.00009605,0.00002883,0.00003321,-0.0092
 5089,-0.01502402,0.00907062,-0.00353037,0.00196793,0.00293084,-0.00822
 588,0.00946578,-0.00471698,0.00213151,-0.09186447,-0.00555242,0.020216
 18,-0.01680158,-0.00484930,-0.00107792,0.09324573,-0.00004240,-0.00016
 546,0.00039983,-0.00000046,-0.00001183,-0.00005247,0.00000414,0.000002
 30,0.00002415,-0.00000578,0.00000072,0.00002444,0.00307650,0.00487875,
 -0.04572062,-0.01290306,0.01167563,0.00533719,0.00782927,-0.00928107,0
 .00313198,0.01579088,-0.02256086,-0.04236623,-0.00492585,0.00784613,0.
 00348955,0.00098792,-0.00239023,0.07273121,-0.01147130,-0.00222954,-0.
 00246118,-0.00177185,0.00212591,0.00324371,0.00019376,0.00019069,-0.00
 066066,0.00027726,-0.00048862,-0.00001792,-0.00047090,0.00027570,-0.00
 006144,0.00007204,-0.00002675,0.00007452,0.00011104,0.00000534,-0.0000
 0534,-0.00175328,-0.00014340,-0.00079744,0.00012583,0.00022586,0.00010
 079,0.00081751,-0.00058101,0.00005277,0.61803451,-0.00313855,-0.010643
 65,-0.00313099,0.00191181,0.00242932,-0.00111146,0.00108848,-0.0011353
 6,-0.00060056,-0.00037195,-0.00028481,0.00030691,-0.00030376,0.0004881
 1,0.00002074,-0.00001344,-0.00011868,0.00002719,0.00001974,-0.00008982
 ,-0.00003212,-0.00139142,0.00007768,-0.00050215,0.00013388,0.00008120,
 0.00001143,0.00074809,-0.00073011,0.00000374,-0.07843341,0.33513684,-0
 .00123230,-0.00256992,-0.00899091,0.00341017,-0.00133972,0.00100914,-0
 .00071482,0.00006762,-0.00014045,0.00050342,0.00006891,-0.00131519,-0.
 00025443,0.00018795,0.00013253,0.00006812,-0.00000384,-0.00003104,0.00
 000690,-0.00002128,-0.00009853,-0.00092517,0.00000094,-0.00012485,0.00
 011714,0.00009121,-0.00009459,0.00050044,-0.00035902,-0.00011552,-0.07
 721696,0.22615348,0.19407981,0.00367547,-0.00048639,-0.00013372,-0.000
 61613,-0.00011357,0.00035038,-0.00016046,0.00023889,0.00026517,-0.0000
 4512,0.00009864,0.00015464,0.00008647,0.00011089,0.00008866,-0.0000347
 7,-0.00003151,-0.00004013,-0.00006489,-0.00004950,-0.00003963,0.000039
 96,0.00009429,0.00011229,0.00000235,-0.00005920,-0.00006064,-0.0000281
 9,-0.00009635,-0.00006775,-0.12313706,0.10288732,0.07688946,0.14389600
 ,0.00116512,-0.00014566,-0.00117922,-0.00033324,0.00029228,0.00064397,
 -0.00007813,0.00011967,-0.00003411,0.00001196,0.00000484,-0.00015163,0
 .00007913,-0.00014399,0.00002403,0.00001185,0.00004507,-0.00001534,-0.
 00001363,0.00003366,-0.00001053,0.00032298,-0.00003823,0.00016467,-0.0
 0003172,-0.00001365,-0.00004161,-0.00019290,0.00018772,-0.00003396,0.1
 5709418,-0.27933475,-0.19889877,-0.14552396,0.27648475,0.00026892,-0.0
 0199425,0.00038995,0.00001994,0.00040019,0.00023550,0.00028251,-0.0002
 5383,-0.00008632,0.00005459,-0.00005040,0.00005898,0.00007424,0.000038
 70,-0.00005611,-0.00004496,-0.00003268,0.00001731,-0.00000619,-0.00001
 169,0.00004277,0.00012980,0.00005365,-0.00003218,-0.00001698,-0.000028
 71,0.00003073,-0.00008497,-0.00001185,0.00004949,0.11491393,-0.1954192
 0,-0.15525429,-0.10902775,0.20288025,0.15073108,-0.00040889,-0.0018287
 9,-0.00160453,-0.00092352,-0.00271723,-0.00517550,-0.00032549,0.000041
 70,0.00149669,-0.00088879,0.00114319,0.00110617,0.00007454,0.00000426,
 0.00002486,-0.00002148,-0.00001058,-0.00001660,-0.00002790,-0.00001513
 ,-0.00001005,0.00019483,0.00004302,0.00010324,-0.00001591,-0.00003690,
 -0.00002811,-0.00010120,0.00003572,-0.00001900,-0.48183156,-0.02292194
 ,0.00155184,-0.02226813,-0.01120347,-0.00674365,0.50534294,-0.00294601
 ,0.00176698,0.00053646,-0.00124632,-0.00281030,0.00348615,-0.00118000,
 0.00141621,0.00083293,0.00108773,0.00003930,-0.00113234,-0.00003780,-0
 .00002289,0.00000118,0.00001592,0.00001925,0.00000372,0.00001116,0.000
 01760,-0.00000500,-0.00019741,-0.00006812,-0.00010544,-0.00000251,0.00
 004578,0.00000475,0.00003733,-0.00000542,-0.00000493,-0.07606147,-0.04
 369426,-0.02055225,0.04372995,0.00297179,-0.00529100,0.03629832,0.0412
 4369,-0.00358870,-0.00003849,0.00271319,-0.00314589,0.00389530,0.00083
 668,0.00128757,-0.00047468,-0.00072757,-0.00047083,-0.00019212,0.00142
 889,-0.00002568,0.00004321,-0.00004105,-0.00001334,-0.00001535,0.00002
 444,0.00001159,-0.00000379,0.00002258,-0.00018252,-0.00001065,-0.00017
 012,0.00000270,0.00001824,0.00004577,0.00005768,-0.00006782,0.00003911
 ,-0.03513330,-0.02228783,-0.02648203,0.03211794,-0.00315688,0.00451870
 ,0.00771776,0.02515598,0.02102428,-0.12139621,-0.01734755,0.04452473,-
 0.03826252,-0.02477269,-0.02664588,-0.00241458,0.00297889,-0.00382741,
 -0.00061807,-0.00507097,0.00110581,-0.00089381,0.00068981,-0.00000068,
 0.00014102,-0.00010020,0.00009141,0.00015934,-0.00005443,-0.00007004,-
 0.00275549,-0.00004985,-0.00080378,0.00035440,0.00034386,0.00006052,0.
 00170405,-0.00123511,0.00003105,0.00389820,0.00311067,0.00208247,0.000
 34643,0.00018229,0.00043850,-0.00221709,0.00156361,0.00246667,0.396139
 55,0.00753339,-0.02100564,-0.01292355,-0.02164049,0.00226617,-0.012004
 32,0.00032832,0.00048339,-0.00012241,-0.00308359,-0.00426514,-0.001091
 82,-0.00019186,0.00023985,-0.00000524,0.00000162,-0.00006744,0.0000221
 9,0.00002482,-0.00004385,-0.00001845,-0.00051077,0.00001309,-0.0000936
 0,0.00009119,-0.00000619,-0.00005049,0.00042439,-0.00033904,0.00003321
 ,0.00157014,-0.00081612,-0.00337508,-0.00074428,-0.00013558,-0.0002978
 1,-0.00025500,-0.00023657,0.00130673,-0.00698177,0.41611421,0.05533842
 ,-0.00069257,-0.04989989,-0.02183029,-0.01055193,-0.00015043,-0.003270
 65,-0.00017390,-0.00405550,-0.00059952,-0.00208668,-0.00048264,0.00018
 183,-0.00014561,0.00011091,0.00002184,0.00001604,-0.00008829,-0.000045
 33,-0.00000563,-0.00004065,0.00089156,0.00024426,0.00073550,0.00003928
 ,-0.00014839,-0.00015564,-0.00034359,0.00031155,-0.00011839,0.00163550
 ,-0.00384846,-0.00329495,-0.00122596,-0.00012865,-0.00060516,-0.000290
 61,0.00069984,0.00031115,-0.00937751,0.27069256,0.28078792,-0.01689790
 ,0.00195517,0.00710542,0.00237409,0.01437743,0.01729705,0.00120643,-0.
 00608554,0.00161412,-0.00164041,0.00299387,-0.00485355,0.00063209,-0.0
 0048450,-0.00003657,-0.00011605,0.00007184,-0.00004366,-0.00011049,0.0
 0004441,0.00006617,0.00200107,-0.00000156,0.00049984,-0.00027206,-0.00
 020212,0.00001180,-0.00119478,0.00086378,0.00002546,-0.00148690,-0.001
 87525,-0.00242386,-0.00037852,-0.00027391,-0.00035094,0.00356772,-0.00
 047650,-0.00067471,-0.16821905,-0.05276964,-0.06717405,0.16260658,-0.0
 0377590,0.00613296,0.00784218,0.00814286,-0.02493310,0.01327926,-0.005
 98651,-0.00280278,-0.00388561,0.00907546,0.00938927,0.00324681,0.00032
 687,-0.00031661,-0.00001910,-0.00004170,0.00006458,-0.00002579,-0.0000
 4792,0.00004433,0.00003612,0.00105335,-0.00005010,0.00026100,-0.000148
 73,-0.00007757,0.00001038,-0.00065780,0.00051397,0.00000561,-0.0025040
 6,-0.00195017,0.00096449,0.00006055,-0.00012320,-0.00028577,0.00138463
 ,-0.00035636,-0.00374014,-0.01261793,-0.06548810,-0.03217185,0.0318266
 1,0.08994313,0.00781339,0.00837432,0.01104185,0.00538470,0.00977825,-0
 .01609201,0.00916201,0.00222650,0.00749075,-0.00032178,0.00057885,-0.0
 0044159,0.00031691,-0.00026450,-0.00004840,-0.00006128,0.00004074,-0.0
 0000589,-0.00004624,0.00003176,0.00005241,0.00097850,-0.00002224,0.000
 18624,-0.00015000,-0.00009693,0.00003275,-0.00062212,0.00044599,0.0000
 3339,-0.00369929,0.00025133,-0.00015632,0.00019303,-0.00017116,0.00003
 826,0.00179550,-0.00320843,-0.00334692,-0.04901680,-0.04817226,-0.0816
 2791,0.04349934,0.03482970,0.09068879,-0.00507125,0.01172519,0.0099918
 7,-0.00570462,0.00033204,-0.00112507,-0.00025680,-0.00059088,-0.000372
 41,-0.00099946,-0.00101170,-0.00107407,0.00009446,-0.00008859,-0.00003
 095,-0.00002313,0.00001801,0.00000844,-0.00001147,0.00001260,0.0000207
 9,0.00018703,-0.00008838,-0.00011313,-0.00007686,0.00001036,0.00006834
 ,-0.00019633,0.00014448,0.00002882,-0.00031782,0.00041312,0.00069508,0
 .00025306,0.00003980,0.00010977,-0.00001536,0.00002727,0.00011153,-0.0
 7391473,0.07833838,0.05147307,0.01732541,-0.02622437,-0.01565720,0.067
 96164,-0.00294391,0.00165438,0.00305195,-0.00060018,0.00097551,0.00060
 190,-0.00014653,-0.00022960,-0.00049725,-0.00012815,-0.00008431,-0.000
 31989,-0.00009097,0.00000756,-0.00000465,0.00002913,0.00001697,0.00000
 857,0.00002514,0.00001506,-0.00000266,-0.00038580,-0.00014023,-0.00018
 889,-0.00000484,0.00010309,0.00004998,0.00013932,-0.00005787,0.0000001
 7,0.00005910,0.00063578,0.00058424,0.00010367,0.00015017,0.00008394,-0
 .00002057,-0.00000036,-0.00001726,0.05516914,-0.33229876,-0.22106375,0
 .01088357,-0.00953722,-0.00326904,-0.06197596,0.33866283,0.00599593,-0
 .00663721,-0.00328968,-0.00074971,0.00143934,-0.00028443,-0.00005603,0
 .00001501,0.00044796,-0.00086675,-0.00076555,-0.00022893,-0.00014177,0
 .00009510,-0.00006022,0.00000224,-0.00000981,0.00005083,0.00003442,-0.
 00000138,0.00001941,-0.00054991,-0.00007532,-0.00038171,0.00004030,0.0
 0006029,0.00009996,0.00026144,-0.00018706,0.00007226,0.00011504,-0.000
 09454,-0.00006385,-0.00008369,-0.00005669,-0.00009849,0.00002919,-0.00
 027352,-0.00009942,0.03340219,-0.19642450,-0.14791582,0.00687524,-0.01
 865983,-0.00518815,-0.04353176,0.22092078,0.15588265,-0.18043772,-0.00
 089798,0.06351737,-0.00123444,-0.00031230,-0.00006660,0.00018476,0.000
 16744,-0.00014770,0.00027399,-0.00007623,0.00002753,-0.00378184,0.0044
 7306,0.00017607,0.00000156,-0.00061119,0.00052327,0.00034850,-0.000286
 37,-0.00038424,-0.04047283,-0.00971862,-0.02269675,-0.00229353,0.00273
 676,-0.00059701,0.00750315,-0.00885208,-0.00088325,-0.00465353,-0.0042
 5882,-0.00317607,-0.00113447,-0.00014419,-0.00005620,0.00033241,-0.001
 07269,-0.00102422,0.00714716,-0.00212861,-0.00260019,0.00276987,0.0008
 7102,0.00056266,0.00078430,-0.00069675,-0.00155236,0.23951742,-0.01081
 588,-0.01067306,0.00393488,-0.00003371,0.00044392,0.00051447,0.0001129
 7,-0.00014276,-0.00010851,0.00002852,-0.00011289,-0.00004993,-0.001205
 33,0.00279171,0.00046884,-0.00024044,-0.00042138,0.00008574,-0.0001509
 5,-0.00034074,-0.00027952,-0.01356045,0.00720160,-0.00569816,0.0021946
 4,0.00057181,0.00089948,0.00247701,-0.00544596,-0.00106404,-0.00280369
 ,0.00007733,-0.00062642,0.00098163,0.00020127,0.00037328,0.00030429,-0
 .00065843,-0.00050125,0.00322840,0.00459507,-0.00031293,-0.00030901,-0
 .00028770,-0.00110042,-0.00093781,-0.00017371,0.00035226,0.01968706,0.
 02182014,0.07804056,0.00130761,-0.05336800,0.00093572,0.00075297,0.001
 07760,-0.00004702,-0.00015501,-0.00007264,-0.00001193,0.00004666,-0.00
 021446,-0.00094882,0.00143132,0.00084904,0.00013154,-0.00008877,-0.000
 10303,-0.00029298,-0.00005797,-0.00042727,-0.01958197,-0.00363116,0.00
 163762,-0.00154698,-0.00015458,-0.00162524,0.00121409,-0.00292681,-0.0
 0156783,-0.00075267,-0.00022781,0.00153440,0.00072537,0.00060369,-0.00
 034878,0.00021232,-0.00017349,-0.00034938,0.00540877,0.00266829,0.0066
 2697,-0.00126734,-0.00157632,-0.00255344,-0.00082293,-0.00011721,0.000
 74192,-0.03765738,-0.00012878,0.56097753,-0.01127983,-0.00019198,0.026
 80561,-0.00023595,-0.00029398,-0.00050293,-0.00000848,0.00004833,0.000
 05867,-0.00003698,-0.00000983,0.00010457,-0.00028860,0.00045013,0.0004
 7548,0.00005010,-0.00000295,-0.00006464,-0.00022320,0.00001597,-0.0002
 2058,-0.00769035,-0.00178795,-0.00042089,-0.00051208,-0.00022817,-0.00
 085339,0.00036554,-0.00097744,-0.00093648,0.00102189,0.00058616,-0.001
 06135,-0.00035080,-0.00071491,0.00019662,-0.00020937,0.00015793,0.0002
 2252,-0.00284750,-0.00063863,-0.00135823,0.00030452,0.00053290,0.00107
 214,0.00008205,-0.00000230,-0.00005191,-0.02980110,-0.00447959,-0.0298
 4588,0.04018611,-0.00007952,0.00298555,0.00128299,0.00005902,-0.000175
 98,-0.00013949,-0.00003720,0.00005131,0.00004744,-0.00000059,0.0000678
 9,0.00000913,-0.00001968,-0.00052227,-0.00021733,0.00005251,0.00010176
 ,0.00004098,0.00012113,0.00019104,0.00008425,-0.00142542,-0.00065337,0
 .00017312,-0.00050774,0.00002484,-0.00067715,-0.00050817,0.00074229,0.
 00012777,0.00114413,-0.00048123,-0.00059944,-0.00107363,-0.00049326,-0
 .00004468,-0.00015498,0.00023509,0.00004527,-0.00000962,0.00051435,0.0
 0001575,0.00010001,0.00018525,0.00007614,-0.00014311,0.00006155,0.0000
 3409,-0.00327542,-0.00523087,0.00235049,0.00435205,0.00035110,-0.00156
 464,0.00125475,-0.00661504,-0.00040902,-0.00021608,-0.00025031,0.00005
 891,0.00006431,0.00001038,0.00005874,-0.00000538,0.00007363,-0.0001409
 2,0.00020147,-0.00002984,-0.00000036,-0.00003756,0.00004953,0.00002601
 ,-0.00001003,0.00003685,-0.00094793,-0.00056819,0.00063578,-0.00047081
 ,0.00021705,-0.00026841,0.00018685,-0.00047498,-0.00019200,-0.00056222
 ,-0.00039712,-0.00100546,-0.00015922,-0.00023662,0.00036557,-0.0000282
 6,-0.00014828,0.00002978,-0.00121915,-0.00029875,0.00085037,0.00075646
 ,0.00036934,0.00034630,0.00010604,-0.00013553,-0.00017291,-0.01156741,
 -0.00147165,-0.49227100,0.01211342,-0.00004330,0.50027982,-0.00902908,
 -0.00237710,0.00562086,0.00143487,0.00060354,0.00044248,-0.00021330,-0
 .00020421,0.00009534,-0.00027773,0.00005209,-0.00005964,0.00551752,-0.
 00745031,0.00023499,0.00017674,0.00138078,-0.00071604,-0.00047789,0.00
 106869,0.00078682,-0.20517695,-0.04901870,-0.07778672,0.00188191,-0.00
 210184,-0.00506004,-0.02071196,0.00820557,-0.00804281,0.00234217,0.001
 80928,0.00117992,-0.00008119,-0.00039725,-0.00015717,-0.00025777,0.000
 29148,0.00026322,0.00364889,0.00063240,-0.00146557,-0.00247160,-0.0012
 6932,-0.00120347,-0.00010009,0.00058689,0.00082789,0.00494634,0.005522
 33,0.00610756,0.01147402,0.00140625,0.00376353,0.20737512,-0.00066546,
 -0.00012293,0.00221786,0.00040146,0.00012570,0.00011035,-0.00007469,-0
 .00002993,0.00002818,-0.00007651,0.00003680,-0.00001507,0.00469874,-0.
 00828298,-0.00173855,0.00036622,0.00060855,-0.00028635,0.00028683,0.00
 007229,0.00049706,-0.02300078,-0.09372117,-0.01234160,-0.03729901,-0.0
 0787044,-0.01902126,0.00582633,0.02283583,0.01093834,0.00058091,0.0003
 5270,0.00022690,-0.00012742,-0.00006290,-0.00010813,-0.00009055,0.0000
 9703,0.00004153,0.00097346,0.00047630,-0.00064965,-0.00063865,-0.00035
 058,-0.00032861,-0.00000044,0.00023914,0.00026852,0.00439591,-0.014215
 34,0.00007688,0.00318422,0.00204496,0.00193657,0.04125943,0.09776698,0
 .00095717,-0.00008259,0.00551040,0.00059239,0.00022436,0.00009527,-0.0
 0008129,-0.00007666,0.00007763,-0.00012569,0.00002343,0.00001669,0.004
 06047,-0.00552878,-0.00160810,-0.00035142,0.00021948,0.00000502,0.0005
 6637,0.00013860,0.00085564,-0.10489950,-0.03268169,-0.08307211,0.01123
 885,0.00672886,0.00706472,-0.00058509,0.00990228,0.00480045,0.00123216
 ,0.00087743,0.00041210,-0.00005845,-0.00020146,0.00000298,-0.00012125,
 0.00017366,0.00022192,0.00134913,0.00015531,-0.00098755,-0.00092622,-0
 .00048048,-0.00045013,0.00011377,0.00031461,0.00046860,0.01760248,0.00
 471264,-0.02054402,-0.00573275,-0.00256601,-0.00187303,0.07516885,0.01
 814702,0.08900352\\-0.00844329,-0.01032529,0.00360483,-0.00730044,0.00
 417110,0.00569095,0.00306719,-0.01127880,0.00301575,-0.00125508,0.0066
 8076,-0.00981736,0.01198474,0.01180913,0.00238944,-0.00446435,-0.00741
 758,0.00847880,-0.00053185,-0.00385016,-0.01097031,0.00651424,-0.00040
 045,-0.02354881,0.00067366,0.00750126,0.00817422,-0.00955006,-0.003211
 03,0.00815557,0.00068380,0.00059506,0.00353328,0.01149146,-0.00324748,
 -0.00387409,-0.01021301,0.00610508,0.00434769,-0.01101544,0.01089071,-
 0.01094715,0.00777580,-0.00721202,0.00386001,-0.00002431,0.00119521,0.
 01100499,0.00905942,0.00495669,-0.00104870,0.00582371,-0.00132791,-0.0
 1101631,-0.00427616,-0.00563428,0.00896721\\\@


 IF YOU BELIEVE CERTAIN WORDS, YOU BELIEVE THEIR HIDDEN ARGUMENTS.
 WHEN YOU BELIEVE SOMETHING IS RIGHT OR WRONG, TRUE OR FALSE, 
 YOU BELIEVE THE ASSUMPTIONS IN THE WORDS WHICH EXPRESS THE ARGUMENTS.
 SUCH ASSUMPTIONS ARE OFTEN FULL OF HOLES, BUT REMAIN MOST PRECIOUS 
 TO THE CONVINCED.

                 -- THE OPEN-ENDED PROOF FROM THE PANOPLIA PROPHETICA
                    CHILDREN OF DUNE BY FRANK HERBERT
 Job cpu time:       0 days  0 hours 47 minutes 54.5 seconds.
 Elapsed time:       0 days  0 hours  1 minutes 43.6 seconds.
 File lengths (MBytes):  RWF=   2793 Int=      0 D2E=      0 Chk=      3 Scr=      1
 Normal termination of Gaussian 16 at Wed May 11 21:47:30 2022.
