 Entering Gaussian System, Link 0=g16
 Initial command:
 /cm/shared/apps/gaussian/intel/EM64T/SSE4_2-enabled/binary//g16/l1.exe "/scratch/florez/25750/Gau-21773.inp" -scrdir="/scratch/florez/25750/"
 Entering Link 1 = /cm/shared/apps/gaussian/intel/EM64T/SSE4_2-enabled/binary//g16/l1.exe PID=     21776.
  
 Copyright (c) 1988,1990,1992,1993,1995,1998,2003,2009,2016,
            Gaussian, Inc.  All Rights Reserved.
  
 This is part of the Gaussian(R) 16 program.  It is based on
 the Gaussian(R) 09 system (copyright 2009, Gaussian, Inc.),
 the Gaussian(R) 03 system (copyright 2003, Gaussian, Inc.),
 the Gaussian(R) 98 system (copyright 1998, Gaussian, Inc.),
 the Gaussian(R) 94 system (copyright 1995, Gaussian, Inc.),
 the Gaussian 92(TM) system (copyright 1992, Gaussian, Inc.),
 the Gaussian 90(TM) system (copyright 1990, Gaussian, Inc.),
 the Gaussian 88(TM) system (copyright 1988, Gaussian, Inc.),
 the Gaussian 86(TM) system (copyright 1986, Carnegie Mellon
 University), and the Gaussian 82(TM) system (copyright 1983,
 Carnegie Mellon University). Gaussian is a federally registered
 trademark of Gaussian, Inc.
  
 This software contains proprietary and confidential information,
 including trade secrets, belonging to Gaussian, Inc.
  
 This software is provided under written license and may be
 used, copied, transmitted, or stored only in accord with that
 written license.
  
 The following legend is applicable only to US Government
 contracts under FAR:
  
                    RESTRICTED RIGHTS LEGEND
  
 Use, reproduction and disclosure by the US Government is
 subject to restrictions as set forth in subparagraphs (a)
 and (c) of the Commercial Computer Software - Restricted
 Rights clause in FAR 52.227-19.
  
 Gaussian, Inc.
 340 Quinnipiac St., Bldg. 40, Wallingford CT 06492
  
  
 ---------------------------------------------------------------
 Warning -- This program may not be used in any manner that
 competes with the business of Gaussian, Inc. or will provide
 assistance to any competitor of Gaussian, Inc.  The licensee
 of this program is prohibited from giving any competitor of
 Gaussian, Inc. access to this program.  By using this program,
 the user acknowledges that Gaussian, Inc. is engaged in the
 business of creating and licensing software in the field of
 computational chemistry and represents and warrants to the
 licensee that it is not a competitor of Gaussian, Inc. and that
 it will not use this program in any manner prohibited above.
 ---------------------------------------------------------------
  

 Cite this work as:
 Gaussian 16, Revision A.03,
 M. J. Frisch, G. W. Trucks, H. B. Schlegel, G. E. Scuseria, 
 M. A. Robb, J. R. Cheeseman, G. Scalmani, V. Barone, 
 G. A. Petersson, H. Nakatsuji, X. Li, M. Caricato, A. V. Marenich, 
 J. Bloino, B. G. Janesko, R. Gomperts, B. Mennucci, H. P. Hratchian, 
 J. V. Ortiz, A. F. Izmaylov, J. L. Sonnenberg, D. Williams-Young, 
 F. Ding, F. Lipparini, F. Egidi, J. Goings, B. Peng, A. Petrone, 
 T. Henderson, D. Ranasinghe, V. G. Zakrzewski, J. Gao, N. Rega, 
 G. Zheng, W. Liang, M. Hada, M. Ehara, K. Toyota, R. Fukuda, 
 J. Hasegawa, M. Ishida, T. Nakajima, Y. Honda, O. Kitao, H. Nakai, 
 T. Vreven, K. Throssell, J. A. Montgomery, Jr., J. E. Peralta, 
 F. Ogliaro, M. J. Bearpark, J. J. Heyd, E. N. Brothers, K. N. Kudin, 
 V. N. Staroverov, T. A. Keith, R. Kobayashi, J. Normand, 
 K. Raghavachari, A. P. Rendell, J. C. Burant, S. S. Iyengar, 
 J. Tomasi, M. Cossi, J. M. Millam, M. Klene, C. Adamo, R. Cammi, 
 J. W. Ochterski, R. L. Martin, K. Morokuma, O. Farkas, 
 J. B. Foresman, and D. J. Fox, Gaussian, Inc., Wallingford CT, 2016.
 
 ******************************************
 Gaussian 16:  ES64L-G16RevA.03 25-Dec-2016
                11-May-2022 
 ******************************************
 %chk=w6s8_new.chk
 %nproc=28
 Will use up to   28 processors via shared memory.
 %mem=500gb
 ------------------------
 #p MP2(full) SDDAll freq
 ------------------------
 1/10=4,30=1,38=1/1,3;
 2/12=2,17=6,18=5,40=1/2;
 3/5=17,6=6,11=9,25=1,30=1,71=2,140=1/1,2,3;
 4//1;
 5/5=2,38=5,98=1/2;
 8/6=3,8=1,10=90,19=11/1;
 9/15=3,16=-3/6;
 11/6=1,8=1,15=11,17=11,24=-1,27=1,28=-2,29=300,32=6,42=3/1,2,10;
 10/6=2,21=1/2;
 8/6=4,8=1,10=90,19=11/11,4;
 10/5=1,20=4/2;
 11/12=2,14=11,16=1,28=-2,42=3/2,10,12;
 6/7=2,8=2,9=2,10=2/1;
 7/8=1,10=1,12=2,25=1,44=2/1,2,3,16;
 1/10=4,30=1/3;
 99//99;
 Leave Link    1 at Wed May 11 21:51:17 2022, MaxMem= 67108864000 cpu:               1.1 elap:               0.0
 (Enter /cm/shared/apps/gaussian/intel/EM64T/SSE4_2-enabled/binary//g16/l101.exe)
 ----------------------------------------------------------------------
 file 'w6s8' Now we use Def2-QZVPPD, but it was opt at: ---'ZORA-SR+SO 
 PBE QZ4P'---
 ----------------------------------------------------------------------
 Symbolic Z-matrix:
 Charge =  2 Multiplicity = 1
 Hg(Fragment=1)       -0.55976  -0.01759  -0.12571 
 O(Fragment=2)         1.25654   3.14033   0.06421 
 H(Fragment=2)         1.69805   3.59598  -0.67199 
 H(Fragment=2)         1.29331   3.75701   0.81439 
 O(Fragment=2)        -2.41695  -0.72591  -0.59494 
 H(Fragment=2)        -3.30746  -0.58541   0.0481 
 H(Fragment=2)        -2.65116  -0.66875  -1.53939 
 O(Fragment=2)         1.25557   0.54617   0.36335 
 H(Fragment=2)         1.32391   1.55576   0.26142 
 H(Fragment=2)         2.42232  -0.26265   0.71523 
 O(Fragment=2)        -4.34175  -0.49126   0.90278 
 H(Fragment=2)        -5.0449    0.16026   0.72942 
 H(Fragment=2)        -4.78045  -1.32413   1.15603 
 O(Fragment=2)         3.21443  -0.89533   1.00039 
 H(Fragment=2)         4.10731  -0.89451   0.38012 
 H(Fragment=2)         3.42882  -0.78642   1.94407 
 O(Fragment=2)         5.19855  -0.98401  -0.46652 
 H(Fragment=2)         5.98922  -0.43738  -0.31783 
 H(Fragment=2)         5.5107   -1.87267  -0.714 
 
 ITRead=  0  0  0  0  0  0  0  0  0  0  0  0  0  0  0  0  0  0  0
 MicOpt= -1 -1 -1 -1 -1 -1 -1 -1 -1 -1 -1 -1 -1 -1 -1 -1 -1 -1 -1
 NAtoms=     19 NQM=       19 NQMF=       0 NMMI=      0 NMMIF=      0
                NMic=       0 NMicF=      0.
                    Isotopes and Nuclear Properties:
 (Nuclear quadrupole moments (NQMom) in fm**2, nuclear magnetic moments (NMagM)
  in nuclear magnetons)

  Atom         1           2           3           4           5           6           7           8           9          10
 IAtWgt=         202          16           1           1          16           1           1          16           1           1
 AtmWgt= 201.9706000  15.9949146   1.0078250   1.0078250  15.9949146   1.0078250   1.0078250  15.9949146   1.0078250   1.0078250
 NucSpn=           0           0           1           1           0           1           1           0           1           1
 AtZEff=  -0.0000000  -0.0000000  -0.0000000  -0.0000000  -0.0000000  -0.0000000  -0.0000000  -0.0000000  -0.0000000  -0.0000000
 NQMom=    0.0000000   0.0000000   0.0000000   0.0000000   0.0000000   0.0000000   0.0000000   0.0000000   0.0000000   0.0000000
 NMagM=    0.0000000   0.0000000   2.7928460   2.7928460   0.0000000   2.7928460   2.7928460   0.0000000   2.7928460   2.7928460
 AtZNuc=  80.0000000   8.0000000   1.0000000   1.0000000   8.0000000   1.0000000   1.0000000   8.0000000   1.0000000   1.0000000

  Atom        11          12          13          14          15          16          17          18          19
 IAtWgt=          16           1           1          16           1           1          16           1           1
 AtmWgt=  15.9949146   1.0078250   1.0078250  15.9949146   1.0078250   1.0078250  15.9949146   1.0078250   1.0078250
 NucSpn=           0           1           1           0           1           1           0           1           1
 AtZEff=  -0.0000000  -0.0000000  -0.0000000  -0.0000000  -0.0000000  -0.0000000  -0.0000000  -0.0000000  -0.0000000
 NQMom=    0.0000000   0.0000000   0.0000000   0.0000000   0.0000000   0.0000000   0.0000000   0.0000000   0.0000000
 NMagM=    0.0000000   2.7928460   2.7928460   0.0000000   2.7928460   2.7928460   0.0000000   2.7928460   2.7928460
 AtZNuc=   8.0000000   1.0000000   1.0000000   8.0000000   1.0000000   1.0000000   8.0000000   1.0000000   1.0000000
 Leave Link  101 at Wed May 11 21:51:17 2022, MaxMem= 67108864000 cpu:               2.4 elap:               0.1
 (Enter /cm/shared/apps/gaussian/intel/EM64T/SSE4_2-enabled/binary//g16/l103.exe)

 GradGradGradGradGradGradGradGradGradGradGradGradGradGradGradGradGradGrad
 Berny optimization.
 Initialization pass.
 Trust Radius=3.00D-01 FncErr=1.00D-07 GrdErr=1.00D-07 EigMax=2.50D+02 EigMin=1.00D-04
 Number of steps in this run=      2 maximum allowed number of steps=      2.
 GradGradGradGradGradGradGradGradGradGradGradGradGradGradGradGradGradGrad

 Leave Link  103 at Wed May 11 21:51:17 2022, MaxMem= 67108864000 cpu:               1.3 elap:               0.1
 (Enter /cm/shared/apps/gaussian/intel/EM64T/SSE4_2-enabled/binary//g16/l202.exe)
                          Input orientation:                          
 ---------------------------------------------------------------------
 Center     Atomic      Atomic             Coordinates (Angstroms)
 Number     Number       Type             X           Y           Z
 ---------------------------------------------------------------------
      1         80           0       -0.559764   -0.017592   -0.125706
      2          8           0        1.256538    3.140331    0.064209
      3          1           0        1.698048    3.595976   -0.671991
      4          1           0        1.293307    3.757011    0.814393
      5          8           0       -2.416954   -0.725909   -0.594944
      6          1           0       -3.307459   -0.585407    0.048101
      7          1           0       -2.651161   -0.668752   -1.539392
      8          8           0        1.255566    0.546169    0.363352
      9          1           0        1.323909    1.555757    0.261424
     10          1           0        2.422315   -0.262654    0.715229
     11          8           0       -4.341751   -0.491263    0.902784
     12          1           0       -5.044902    0.160261    0.729416
     13          1           0       -4.780445   -1.324132    1.156033
     14          8           0        3.214429   -0.895332    1.000386
     15          1           0        4.107308   -0.894505    0.380124
     16          1           0        3.428823   -0.786416    1.944066
     17          8           0        5.198550   -0.984006   -0.466520
     18          1           0        5.989224   -0.437382   -0.317830
     19          1           0        5.510704   -1.872667   -0.713996
 ---------------------------------------------------------------------
                    Distance matrix (angstroms):
                    1          2          3          4          5
     1  Hg   0.000000
     2  O    3.647944   0.000000
     3  H    4.295814   0.971871   0.000000
     4  H    4.308745   0.971814   1.548898   0.000000
     5  O    2.042315   5.373717   5.968071   5.987390   0.000000
     6  H    2.811130   5.891643   6.561829   6.372664   1.107360
     7  H    2.607002   5.687773   6.152716   6.378598   0.974732
     8  O    1.962760   2.611353   3.251007   3.242587   4.002988
     9  H    2.484657   1.598220   2.274585   2.269852   4.464686
    10  H    3.108058   3.655567   4.163889   4.176386   5.034847
    11  O    3.947858   6.725513   7.460872   7.057586   2.450121
    12  H    4.569390   7.002247   7.696457   7.288122   3.073327
    13  H    4.600440   7.587402   8.337866   7.926235   3.001646
    14  O    4.035225   4.582176   5.026739   5.036824   5.855447
    15  H    4.775605   4.950413   5.203451   5.453787   6.598877
    16  H    4.558933   4.865391   5.389313   5.145806   6.373644
    17  O    5.848785   5.729859   5.768186   6.274464   7.620958
    18  H    6.565240   5.945107   5.899796   6.397382   8.415692
    19  H    6.374792   6.620701   6.666646   7.198311   8.011054
                    6          7          8          9         10
     6  H    0.000000
     7  H    1.719828   0.000000
     8  O    4.711798   4.512093   0.000000
     9  H    5.106825   4.898220   1.017019   0.000000
    10  H    5.777503   5.566722   1.462640   2.172338   0.000000
    11  O    1.345030   2.975537   5.718147   6.058163   6.770526
    12  H    2.009706   3.400698   6.322881   6.536680   7.479197
    13  H    1.985678   3.496954   6.368657   6.808614   7.293888
    14  O    6.598327   6.395855   2.514136   3.182447   1.053110
    15  H    7.428630   7.029396   3.195036   3.710146   1.830501
    16  H    7.000899   7.008176   2.999581   3.570395   1.672551
    17  O    8.530880   7.928960   4.310133   4.689685   3.102315
    18  H    9.305059   8.729376   4.882510   5.106202   3.717604
    19  H    8.944151   8.291365   5.011751   5.498617   3.764701
                   11         12         13         14         15
    11  O    0.000000
    12  H    0.974146   0.000000
    13  H    0.974812   1.566960   0.000000
    14  O    7.567606   8.330921   8.007878   0.000000
    15  H    8.474808   9.219408   8.931896   1.087179   0.000000
    16  H    7.845585   8.612525   8.264515   0.973837   1.708198
    17  O    9.650655  10.376315  10.115765   2.469091   1.384061
    18  H   10.402973  11.099813  10.906162   3.105946   2.058570
    19  H   10.079341  10.846062  10.474046   3.027733   2.030621
                   16         17         18         19
    16  H    0.000000
    17  O    2.996982   0.000000
    18  H    3.434189   0.972662   0.000000
    19  H    3.546754   0.973860   1.563960   0.000000
 Stoichiometry    H12HgO6(2+)
 Framework group  C1[X(H12HgO6)]
 Deg. of freedom    51
 Full point group                 C1      NOp   1
 Largest Abelian subgroup         C1      NOp   1
 Largest concise Abelian subgroup C1      NOp   1
                         Standard orientation:                         
 ---------------------------------------------------------------------
 Center     Atomic      Atomic             Coordinates (Angstroms)
 Number     Number       Type             X           Y           Z
 ---------------------------------------------------------------------
      1         80           0       -0.549047   -0.049978   -0.150121
      2          8           0        1.305813    3.084294    0.058047
      3          1           0        1.757841    3.535755   -0.674337
      4          1           0        1.345499    3.698981    0.809717
      5          8           0       -2.411960   -0.733777   -0.632849
      6          1           0       -3.304785   -0.583267    0.004692
      7          1           0       -2.639269   -0.671798   -1.578678
      8          8           0        1.270050    0.489769    0.351858
      9          1           0        1.351832    1.498608    0.252446
     10          1           0        2.424150   -0.334466    0.709638
     11          8           0       -4.343346   -0.477705    0.852838
     12          1           0       -5.037049    0.183018    0.676248
     13          1           0       -4.794189   -1.305444    1.101527
     14          8           0        3.206317   -0.977692    0.998631
     15          1           0        4.103155   -0.986960    0.384177
     16          1           0        3.415921   -0.873359    1.943903
     17          8           0        5.198668   -1.088617   -0.455551
     18          1           0        5.995214   -0.552351   -0.300614
     19          1           0        5.501152   -1.980674   -0.702818
 ---------------------------------------------------------------------
 Rotational constants (GHZ):           1.7169137           0.3797224           0.3331136
 Leave Link  202 at Wed May 11 21:51:17 2022, MaxMem= 67108864000 cpu:               0.3 elap:               0.0
 (Enter /cm/shared/apps/gaussian/intel/EM64T/SSE4_2-enabled/binary//g16/l301.exe)
 Standard basis: SDDAll (6D, 10F)
 Ernie: Thresh=  0.10000D-02 Tol=  0.10000D-05 Strict=F.
 There are   129 symmetry adapted cartesian basis functions of A   symmetry.
 There are   129 symmetry adapted basis functions of A   symmetry.
   129 basis functions,   227 primitive gaussians,   129 cartesian basis functions
    33 alpha electrons       33 beta electrons
       nuclear repulsion energy       313.5092318490 Hartrees.
 IExCor=    0 DFT=F Ex=HF Corr=None ExCW=0 ScaHFX=  1.000000
 ScaDFX=  1.000000  1.000000  1.000000  1.000000 ScalE2=  1.000000  1.000000
 IRadAn=      5 IRanWt=     -1 IRanGd=            0 ICorTp=0 IEmpDi=  4
 NAtoms=   19 NActive=   19 NUniq=   19 SFac= 1.00D+00 NAtFMM=   60 NAOKFM=F Big=F
 Integral buffers will be    131072 words long.
 Raffenetti 1 integral format.
 Two-electron integral symmetry is turned on.
 Leave Link  301 at Wed May 11 21:51:17 2022, MaxMem= 67108864000 cpu:               1.4 elap:               0.1
 (Enter /cm/shared/apps/gaussian/intel/EM64T/SSE4_2-enabled/binary//g16/l302.exe)
 NPDir=0 NMtPBC=     1 NCelOv=     1 NCel=       1 NClECP=     1 NCelD=      1
         NCelK=      1 NCelE2=     1 NClLst=     1 CellRange=     0.0.
 One-electron integrals computed using PRISM.
 One-electron integral symmetry used in STVInt
   1 Symmetry operations used in ECPInt.
 ECPInt:  NShTT=    2346 NPrTT=    7709 LenC2=    2235 LenP2D=    5549.
 LDataN:  DoStor=T MaxTD1= 7 Len=  274
 NBasis=   129 RedAO= T EigKep=  3.83D-04  NBF=   129
 NBsUse=   129 1.00D-06 EigRej= -1.00D+00 NBFU=   129
 Leave Link  302 at Wed May 11 21:51:17 2022, MaxMem= 67108864000 cpu:               6.6 elap:               0.3
 (Enter /cm/shared/apps/gaussian/intel/EM64T/SSE4_2-enabled/binary//g16/l303.exe)
 DipDrv:  MaxL=1.
 Leave Link  303 at Wed May 11 21:51:17 2022, MaxMem= 67108864000 cpu:               1.0 elap:               0.1
 (Enter /cm/shared/apps/gaussian/intel/EM64T/SSE4_2-enabled/binary//g16/l401.exe)
 ExpMin= 2.00D-02 ExpMax= 4.71D+01 ExpMxC= 4.71D+01 IAcc=3 IRadAn=         5 AccDes= 0.00D+00
 Harris functional with IExCor=  205 and IRadAn=       5 diagonalized for initial guess.
 HarFok:  IExCor=  205 AccDes= 0.00D+00 IRadAn=         5 IDoV= 1 UseB2=F ITyADJ=14
 ICtDFT=  3500011 ScaDFX=  1.000000  1.000000  1.000000  1.000000
 Defaulting to unpruned grid for atomic number  80.
 FoFCou: FMM=F IPFlag=           0 FMFlag=      100000 FMFlg1=           0
         NFxFlg=           0 DoJE=T BraDBF=F KetDBF=T FulRan=T
         wScrn=  0.000000 ICntrl=       500 IOpCl=  0 I1Cent=   200000004 NGrid=           0
         NMat0=    1 NMatS0=      1 NMatT0=    0 NMatD0=    1 NMtDS0=    0 NMtDT0=    0
 Petite list used in FoFCou.
 Harris En= -257.166380564890    
 JPrj=0 DoOrth=F DoCkMO=F.
 Leave Link  401 at Wed May 11 21:51:18 2022, MaxMem= 67108864000 cpu:               8.5 elap:               0.3
 (Enter /cm/shared/apps/gaussian/intel/EM64T/SSE4_2-enabled/binary//g16/l502.exe)
 Integral symmetry usage will be decided dynamically.
 Closed shell SCF:
 Using DIIS extrapolation, IDIIS=  1040.
 NGot= 67108864000 LenX= 67108825412 LenY= 67108808330
 Requested convergence on RMS density matrix=1.00D-08 within 128 cycles.
 Requested convergence on MAX density matrix=1.00D-06.
 Requested convergence on             energy=1.00D-06.
 No special actions if energy rises.
 Fock matrices will be formed incrementally for  20 cycles.

 Cycle   1  Pass 0  IDiag  1:
 FoFJK:  IHMeth= 1 ICntrl=       0 DoSepK=F KAlg= 0 I1Cent=           0 FoldK=F
 IRaf= 900000000 NMat=       1 IRICut=       1 DoRegI=T DoRafI=F ISym2E= 0 IDoP0=0 IntGTp=1.
 FoFCou: FMM=F IPFlag=           0 FMFlag=      100000 FMFlg1=           0
         NFxFlg=           0 DoJE=F BraDBF=F KetDBF=F FulRan=T
         wScrn=  0.000000 ICntrl=         0 IOpCl=  0 I1Cent=           0 NGrid=           0
         NMat0=    1 NMatS0=      1 NMatT0=    0 NMatD0=    1 NMtDS0=    0 NMtDT0=    0
 Symmetry not used in FoFCou.
 E= -252.935705130788    
 DIIS: error= 4.16D-02 at cycle   1 NSaved=   1.
 NSaved= 1 IEnMin= 1 EnMin= -252.935705130788     IErMin= 1 ErrMin= 4.16D-02
 ErrMax= 4.16D-02  0.00D+00 EMaxC= 1.00D-01 BMatC= 6.30D-01 BMatP= 6.30D-01
 IDIUse=3 WtCom= 5.84D-01 WtEn= 4.16D-01
 Coeff-Com:  0.100D+01
 Coeff-En:   0.100D+01
 Coeff:      0.100D+01
 Gap=     0.688 Goal=   None    Shift=    0.000
 GapD=    0.688 DampG=2.000 DampE=0.250 DampFc=0.5000 IDamp=-1.
 Damping current iteration by 5.00D-01
 RMSDP=8.05D-03 MaxDP=2.38D-01              OVMax= 2.37D-01

 Cycle   2  Pass 0  IDiag  1:
 RMSU=  3.99D-03    CP:  1.02D+00
 E= -253.204434058509     Delta-E=       -0.268728927721 Rises=F Damp=T
 DIIS: error= 1.11D-02 at cycle   2 NSaved=   2.
 NSaved= 2 IEnMin= 2 EnMin= -253.204434058509     IErMin= 2 ErrMin= 1.11D-02
 ErrMax= 1.11D-02  0.00D+00 EMaxC= 1.00D-01 BMatC= 3.80D-02 BMatP= 6.30D-01
 IDIUse=3 WtCom= 8.89D-01 WtEn= 1.11D-01
 Coeff-Com: -0.226D+00 0.123D+01
 Coeff-En:   0.000D+00 0.100D+01
 Coeff:     -0.201D+00 0.120D+01
 Gap=     0.543 Goal=   None    Shift=    0.000
 RMSDP=2.41D-03 MaxDP=6.51D-02 DE=-2.69D-01 OVMax= 7.18D-02

 Cycle   3  Pass 0  IDiag  1:
 RMSU=  2.17D-03    CP:  1.01D+00  1.25D+00
 E= -253.432315885133     Delta-E=       -0.227881826624 Rises=F Damp=F
 DIIS: error= 3.35D-03 at cycle   3 NSaved=   3.
 NSaved= 3 IEnMin= 3 EnMin= -253.432315885133     IErMin= 3 ErrMin= 3.35D-03
 ErrMax= 3.35D-03  0.00D+00 EMaxC= 1.00D-01 BMatC= 3.50D-03 BMatP= 3.80D-02
 IDIUse=3 WtCom= 9.67D-01 WtEn= 3.35D-02
 Coeff-Com:  0.213D-01-0.309D-01 0.101D+01
 Coeff-En:   0.000D+00 0.000D+00 0.100D+01
 Coeff:      0.206D-01-0.299D-01 0.101D+01
 Gap=     0.535 Goal=   None    Shift=    0.000
 RMSDP=8.83D-04 MaxDP=3.12D-02 DE=-2.28D-01 OVMax= 1.62D-02

 Cycle   4  Pass 0  IDiag  1:
 RMSU=  5.38D-04    CP:  1.00D+00  1.19D+00  1.28D+00
 E= -253.435895059544     Delta-E=       -0.003579174411 Rises=F Damp=F
 DIIS: error= 1.88D-03 at cycle   4 NSaved=   4.
 NSaved= 4 IEnMin= 4 EnMin= -253.435895059544     IErMin= 4 ErrMin= 1.88D-03
 ErrMax= 1.88D-03  0.00D+00 EMaxC= 1.00D-01 BMatC= 7.22D-04 BMatP= 3.50D-03
 IDIUse=3 WtCom= 9.81D-01 WtEn= 1.88D-02
 Coeff-Com:  0.366D-01-0.161D+00 0.329D+00 0.796D+00
 Coeff-En:   0.000D+00 0.000D+00 0.000D+00 0.100D+01
 Coeff:      0.359D-01-0.158D+00 0.322D+00 0.800D+00
 Gap=     0.531 Goal=   None    Shift=    0.000
 RMSDP=3.82D-04 MaxDP=1.23D-02 DE=-3.58D-03 OVMax= 1.51D-02

 Cycle   5  Pass 0  IDiag  1:
 RMSU=  2.13D-04    CP:  1.00D+00  1.19D+00  1.42D+00  1.08D+00
 E= -253.436950785097     Delta-E=       -0.001055725554 Rises=F Damp=F
 DIIS: error= 4.62D-04 at cycle   5 NSaved=   5.
 NSaved= 5 IEnMin= 5 EnMin= -253.436950785097     IErMin= 5 ErrMin= 4.62D-04
 ErrMax= 4.62D-04  0.00D+00 EMaxC= 1.00D-01 BMatC= 4.79D-05 BMatP= 7.22D-04
 IDIUse=3 WtCom= 9.95D-01 WtEn= 4.62D-03
 Coeff-Com: -0.123D-01 0.428D-01-0.109D+00-0.990D-01 0.118D+01
 Coeff-En:   0.000D+00 0.000D+00 0.000D+00 0.000D+00 0.100D+01
 Coeff:     -0.123D-01 0.426D-01-0.108D+00-0.986D-01 0.118D+01
 Gap=     0.526 Goal=   None    Shift=    0.000
 RMSDP=1.61D-04 MaxDP=4.00D-03 DE=-1.06D-03 OVMax= 5.26D-03

 Cycle   6  Pass 0  IDiag  1:
 RMSU=  6.21D-05    CP:  9.99D-01  1.19D+00  1.47D+00  1.21D+00  1.39D+00
 E= -253.437095976199     Delta-E=       -0.000145191102 Rises=F Damp=F
 DIIS: error= 1.62D-04 at cycle   6 NSaved=   6.
 NSaved= 6 IEnMin= 6 EnMin= -253.437095976199     IErMin= 6 ErrMin= 1.62D-04
 ErrMax= 1.62D-04  0.00D+00 EMaxC= 1.00D-01 BMatC= 1.39D-05 BMatP= 4.79D-05
 IDIUse=3 WtCom= 9.98D-01 WtEn= 1.62D-03
 Coeff-Com: -0.910D-02 0.363D-01-0.107D+00-0.163D+00 0.378D+00 0.864D+00
 Coeff-En:   0.000D+00 0.000D+00 0.000D+00 0.000D+00 0.000D+00 0.100D+01
 Coeff:     -0.909D-02 0.362D-01-0.106D+00-0.162D+00 0.378D+00 0.864D+00
 Gap=     0.526 Goal=   None    Shift=    0.000
 RMSDP=8.65D-05 MaxDP=2.38D-03 DE=-1.45D-04 OVMax= 3.10D-03

 Cycle   7  Pass 0  IDiag  1:
 RMSU=  2.22D-05    CP:  9.99D-01  1.19D+00  1.49D+00  1.27D+00  1.58D+00
                    CP:  1.27D+00
 E= -253.437124587256     Delta-E=       -0.000028611057 Rises=F Damp=F
 DIIS: error= 4.76D-05 at cycle   7 NSaved=   7.
 NSaved= 7 IEnMin= 7 EnMin= -253.437124587256     IErMin= 7 ErrMin= 4.76D-05
 ErrMax= 4.76D-05  0.00D+00 EMaxC= 1.00D-01 BMatC= 7.79D-07 BMatP= 1.39D-05
 IDIUse=1 WtCom= 1.00D+00 WtEn= 0.00D+00
 Coeff-Com:  0.283D-02-0.801D-02 0.182D-01 0.341D-01-0.146D+00-0.174D+00
 Coeff-Com:  0.127D+01
 Coeff:      0.283D-02-0.801D-02 0.182D-01 0.341D-01-0.146D+00-0.174D+00
 Coeff:      0.127D+01
 Gap=     0.525 Goal=   None    Shift=    0.000
 RMSDP=2.47D-05 MaxDP=6.40D-04 DE=-2.86D-05 OVMax= 9.07D-04

 Cycle   8  Pass 0  IDiag  1:
 RMSU=  6.00D-06    CP:  9.99D-01  1.19D+00  1.50D+00  1.29D+00  1.63D+00
                    CP:  1.44D+00  1.31D+00
 E= -253.437126536543     Delta-E=       -0.000001949287 Rises=F Damp=F
 DIIS: error= 1.13D-05 at cycle   8 NSaved=   8.
 NSaved= 8 IEnMin= 8 EnMin= -253.437126536543     IErMin= 8 ErrMin= 1.13D-05
 ErrMax= 1.13D-05  0.00D+00 EMaxC= 1.00D-01 BMatC= 5.29D-08 BMatP= 7.79D-07
 IDIUse=1 WtCom= 1.00D+00 WtEn= 0.00D+00
 Coeff-Com:  0.622D-03-0.200D-02 0.665D-02 0.947D-02-0.372D-01-0.460D-01
 Coeff-Com:  0.205D+00 0.864D+00
 Coeff:      0.622D-03-0.200D-02 0.665D-02 0.947D-02-0.372D-01-0.460D-01
 Coeff:      0.205D+00 0.864D+00
 Gap=     0.525 Goal=   None    Shift=    0.000
 RMSDP=2.31D-06 MaxDP=5.55D-05 DE=-1.95D-06 OVMax= 9.45D-05

 Initial convergence to 1.0D-05 achieved.  Increase integral accuracy.
 Cycle   9  Pass 1  IDiag  1:
 E= -253.437126617525     Delta-E=       -0.000000080982 Rises=F Damp=F
 DIIS: error= 7.07D-06 at cycle   1 NSaved=   1.
 NSaved= 1 IEnMin= 1 EnMin= -253.437126617525     IErMin= 1 ErrMin= 7.07D-06
 ErrMax= 7.07D-06  0.00D+00 EMaxC= 1.00D-01 BMatC= 1.01D-08 BMatP= 1.01D-08
 IDIUse=1 WtCom= 1.00D+00 WtEn= 0.00D+00
 Coeff-Com:  0.100D+01
 Coeff:      0.100D+01
 Gap=     0.525 Goal=   None    Shift=    0.000
 RMSDP=2.31D-06 MaxDP=5.55D-05 DE=-8.10D-08 OVMax= 4.84D-05

 Cycle  10  Pass 1  IDiag  1:
 RMSU=  1.03D-06    CP:  1.00D+00
 E= -253.437126635342     Delta-E=       -0.000000017817 Rises=F Damp=F
 DIIS: error= 3.34D-06 at cycle   2 NSaved=   2.
 NSaved= 2 IEnMin= 2 EnMin= -253.437126635342     IErMin= 2 ErrMin= 3.34D-06
 ErrMax= 3.34D-06  0.00D+00 EMaxC= 1.00D-01 BMatC= 3.16D-09 BMatP= 1.01D-08
 IDIUse=1 WtCom= 1.00D+00 WtEn= 0.00D+00
 Coeff-Com:  0.250D+00 0.750D+00
 Coeff:      0.250D+00 0.750D+00
 Gap=     0.525 Goal=   None    Shift=    0.000
 RMSDP=4.44D-07 MaxDP=1.19D-05 DE=-1.78D-08 OVMax= 2.18D-05

 Cycle  11  Pass 1  IDiag  1:
 RMSU=  3.89D-07    CP:  1.00D+00  1.21D+00
 E= -253.437126640093     Delta-E=       -0.000000004751 Rises=F Damp=F
 DIIS: error= 2.42D-06 at cycle   3 NSaved=   3.
 NSaved= 3 IEnMin= 3 EnMin= -253.437126640093     IErMin= 3 ErrMin= 2.42D-06
 ErrMax= 2.42D-06  0.00D+00 EMaxC= 1.00D-01 BMatC= 7.11D-10 BMatP= 3.16D-09
 IDIUse=1 WtCom= 1.00D+00 WtEn= 0.00D+00
 Coeff-Com: -0.388D+00-0.180D+00 0.157D+01
 Coeff:     -0.388D+00-0.180D+00 0.157D+01
 Gap=     0.525 Goal=   None    Shift=    0.000
 RMSDP=6.06D-07 MaxDP=1.60D-05 DE=-4.75D-09 OVMax= 3.23D-05

 Cycle  12  Pass 1  IDiag  1:
 RMSU=  1.39D-07    CP:  1.00D+00  1.72D+00  1.66D+00
 E= -253.437126642611     Delta-E=       -0.000000002518 Rises=F Damp=F
 DIIS: error= 2.70D-07 at cycle   4 NSaved=   4.
 NSaved= 4 IEnMin= 4 EnMin= -253.437126642611     IErMin= 4 ErrMin= 2.70D-07
 ErrMax= 2.70D-07  0.00D+00 EMaxC= 1.00D-01 BMatC= 1.97D-11 BMatP= 7.11D-10
 IDIUse=1 WtCom= 1.00D+00 WtEn= 0.00D+00
 Coeff-Com: -0.848D-01-0.547D-01 0.320D+00 0.819D+00
 Coeff:     -0.848D-01-0.547D-01 0.320D+00 0.819D+00
 Gap=     0.525 Goal=   None    Shift=    0.000
 RMSDP=6.20D-08 MaxDP=1.88D-06 DE=-2.52D-09 OVMax= 3.45D-06

 Cycle  13  Pass 1  IDiag  1:
 RMSU=  3.42D-08    CP:  1.00D+00  1.75D+00  1.73D+00  1.25D+00
 E= -253.437126642646     Delta-E=       -0.000000000035 Rises=F Damp=F
 DIIS: error= 1.24D-07 at cycle   5 NSaved=   5.
 NSaved= 5 IEnMin= 5 EnMin= -253.437126642646     IErMin= 5 ErrMin= 1.24D-07
 ErrMax= 1.24D-07  0.00D+00 EMaxC= 1.00D-01 BMatC= 4.07D-12 BMatP= 1.97D-11
 IDIUse=1 WtCom= 1.00D+00 WtEn= 0.00D+00
 Coeff-Com:  0.980D-01 0.446D-01-0.399D+00 0.121D-01 0.124D+01
 Coeff:      0.980D-01 0.446D-01-0.399D+00 0.121D-01 0.124D+01
 Gap=     0.525 Goal=   None    Shift=    0.000
 RMSDP=5.11D-08 MaxDP=1.73D-06 DE=-3.50D-11 OVMax= 2.35D-06

 Cycle  14  Pass 1  IDiag  1:
 RMSU=  1.14D-08    CP:  1.00D+00  1.76D+00  1.77D+00  1.56D+00  1.34D+00
 E= -253.437126642656     Delta-E=       -0.000000000010 Rises=F Damp=F
 DIIS: error= 2.48D-08 at cycle   6 NSaved=   6.
 NSaved= 6 IEnMin= 6 EnMin= -253.437126642656     IErMin= 6 ErrMin= 2.48D-08
 ErrMax= 2.48D-08  0.00D+00 EMaxC= 1.00D-01 BMatC= 1.97D-13 BMatP= 4.07D-12
 IDIUse=1 WtCom= 1.00D+00 WtEn= 0.00D+00
 Coeff-Com:  0.252D-01 0.123D-01-0.102D+00-0.213D-01 0.281D+00 0.805D+00
 Coeff:      0.252D-01 0.123D-01-0.102D+00-0.213D-01 0.281D+00 0.805D+00
 Gap=     0.525 Goal=   None    Shift=    0.000
 RMSDP=6.03D-09 MaxDP=1.64D-07 DE=-1.01D-11 OVMax= 2.91D-07

 SCF Done:  E(RHF) =  -253.437126643     A.U. after   14 cycles
            NFock= 14  Conv=0.60D-08     -V/T= 2.9208
 KE= 1.319421505797D+02 PE=-1.172892348925D+03 EE= 4.740038398541D+02
 Leave Link  502 at Wed May 11 21:51:20 2022, MaxMem= 67108864000 cpu:              60.3 elap:               2.2
 (Enter /cm/shared/apps/gaussian/intel/EM64T/SSE4_2-enabled/binary//g16/l801.exe)
 Range of M.O.s used for correlation:     1   129
 NBasis=   129 NAE=    33 NBE=    33 NFC=     0 NFV=     0
 NROrb=    129 NOA=    33 NOB=    33 NVA=    96 NVB=    96

 **** Warning!!: The largest alpha MO coefficient is  0.28655174D+02

 Leave Link  801 at Wed May 11 21:51:20 2022, MaxMem= 67108864000 cpu:               0.5 elap:               0.0
 (Enter /cm/shared/apps/gaussian/intel/EM64T/SSE4_2-enabled/binary//g16/l906.exe)
 FulOut=F Deriv=T AODrv=T NAtomX=    19
   MMem=           0  MDisk=          33 MDiskD=          33
  W3Min=      549153 MinDsk=     1693460 NBas6D=         129
 NBas2D=        8499    NTT=        8385    LW2=     3308096
    MDV= 67108626825 MDiskM=     7225089 NBas2p=        7877
 Disk-based method using ON**2 memory for 33 occupieds at a time.
 Permanent disk used for amplitudes=    12443904 words.
 Estimated scratch disk usage=   128095877 words.
 IMap=   1   2   3   4   5   6   7   8   9  10  11  12  13  14  15  16  17  18  19  20
 IMap=  21  22  23  24  25  26  27  28  29  30  31  32  33
 Actual    scratch disk usage=   117108357 words.
 JobTyp=1 Pass  1:  I=   1 to  33 NPSUse= 28 ParTrn=T ParDer=T DoDerP=T.
 (rs|ai) integrals will be sorted in core.
 Spin components of T(2) and E(2):
     alpha-alpha T2 =       0.3676736808D-01 E2=     -0.1173896846D+00
     alpha-beta  T2 =       0.2143794891D+00 E2=     -0.6952986433D+00
     beta-beta   T2 =       0.3676736808D-01 E2=     -0.1173896846D+00
 The integrals were generated   1 times.
 ANorm=    0.1134863087D+01
 E2 =    -0.9300780125D+00 EUMP2 =    -0.25436720465516D+03
 Leave Link  906 at Wed May 11 21:51:35 2022, MaxMem= 67108864000 cpu:             417.4 elap:              14.9
 (Enter /cm/shared/apps/gaussian/intel/EM64T/SSE4_2-enabled/binary//g16/l1101.exe)
 Using compressed Sx but separate Hx and Fx, NAtomX=    19.
 Will process     20 centers per pass.
   1 Symmetry operations used in ECPInt.
 ECPInt:  NShTT=    2346 NPrTT=    7709 LenC2=    2235 LenP2D=    5549.
 LDataN:  DoStor=T MaxTD1= 8 Len=  415
 Leave Link 1101 at Wed May 11 21:51:35 2022, MaxMem= 67108864000 cpu:              12.6 elap:               0.5
 (Enter /cm/shared/apps/gaussian/intel/EM64T/SSE4_2-enabled/binary//g16/l1102.exe)
 Leave Link 1102 at Wed May 11 21:51:35 2022, MaxMem= 67108864000 cpu:               0.6 elap:               0.0
 (Enter /cm/shared/apps/gaussian/intel/EM64T/SSE4_2-enabled/binary//g16/l1110.exe)
 Forming Gx(P) for the SCF density, NAtomX=    19.
 Integral derivatives from FoFJK, PRISM(SPDF).
 Do as many integral derivatives as possible in FoFJK.
 G2DrvN: MDV=   67108862534.
 G2DrvN: will do    20 centers at a time, making    1 passes.
 Calling FoFCou, ICntrl=  3107 FMM=F I1Cent=   0 AccDes= 0.00D+00.
 FoFJK:  IHMeth= 1 ICntrl=    3107 DoSepK=F KAlg= 0 I1Cent=           0 FoldK=F
 IRaf=         0 NMat=       1 IRICut=       1 DoRegI=T DoRafI=F ISym2E= 0 IDoP0=0 IntGTp=1.
 FoFCou: FMM=F IPFlag=           0 FMFlag=      100000 FMFlg1=           0
         NFxFlg=           0 DoJE=F BraDBF=F KetDBF=F FulRan=T
         wScrn=  0.000000 ICntrl=      3107 IOpCl=  0 I1Cent=           0 NGrid=           0
         NMat0=    1 NMatS0=      1 NMatT0=    0 NMatD0=    1 NMtDS0=    0 NMtDT0=    0
 Symmetry not used in FoFCou.
 End of G2Drv F.D. properties file   721 does not exist.
 End of G2Drv F.D. properties file   722 does not exist.
 End of G2Drv F.D. properties file   788 does not exist.
 Leave Link 1110 at Wed May 11 21:51:36 2022, MaxMem= 67108864000 cpu:              12.7 elap:               0.5
 (Enter /cm/shared/apps/gaussian/intel/EM64T/SSE4_2-enabled/binary//g16/l1002.exe)
 Minotr:  Closed shell wavefunction.
          IDoAtm=1111111111111111111
          Direct CPHF calculation.
          Differentiating once with respect to electric field.
                with respect to dipole field.
          Differentiating once with respect to nuclear coordinates.
          Requested convergence is 1.0D-08 RMS, and 1.0D-07 maximum.
          Secondary convergence is 1.0D-12 RMS, and 1.0D-12 maximum.
          NewPWx=T KeepS1=T KeepF1=T KeepIn=T MapXYZ=F SortEE=F KeepMc=T.
 Keep R1 ints in memory in canonical form, NReq=41156470.
 FoFCou: FMM=F IPFlag=           0 FMFlag=           0 FMFlg1=           0
         NFxFlg=           0 DoJE=F BraDBF=F KetDBF=F FulRan=T
         wScrn=  0.000000 ICntrl=       600 IOpCl=  0 I1Cent=           0 NGrid=           0
         NMat0=    1 NMatS0=   8385 NMatT0=    0 NMatD0=    1 NMtDS0=    0 NMtDT0=    0
 Symmetry not used in FoFCou.
 Two-electron integral symmetry not used.
          MDV=   67108864000 using IRadAn=       1.
          Solving linear equations simultaneously, MaxMat=       0.
          There are    60 degrees of freedom in the 1st order CPHF.  IDoFFX=6 NUNeed=    60.
     57 vectors produced by pass  0 Test12= 5.28D-15 1.67D-09 XBig12= 1.35D+01 1.49D+00.
 AX will form    57 AO Fock derivatives at one time.
     57 vectors produced by pass  1 Test12= 5.28D-15 1.67D-09 XBig12= 3.20D-01 1.08D-01.
     57 vectors produced by pass  2 Test12= 5.28D-15 1.67D-09 XBig12= 5.88D-03 1.81D-02.
     57 vectors produced by pass  3 Test12= 5.28D-15 1.67D-09 XBig12= 4.74D-05 1.47D-03.
     57 vectors produced by pass  4 Test12= 5.28D-15 1.67D-09 XBig12= 2.77D-07 7.20D-05.
     57 vectors produced by pass  5 Test12= 5.28D-15 1.67D-09 XBig12= 1.72D-09 6.48D-06.
     34 vectors produced by pass  6 Test12= 5.28D-15 1.67D-09 XBig12= 8.57D-12 3.21D-07.
      3 vectors produced by pass  7 Test12= 5.28D-15 1.67D-09 XBig12= 3.39D-14 1.61D-08.
 InvSVY:  IOpt=1 It=  1 EMax= 2.22D-15
 Solved reduced A of dimension   379 with    60 vectors.
 FullF1:  Do perturbations      1 to      60.
 Saving first derivative matrices.
 End of Minotr F.D. properties file   721 does not exist.
 End of Minotr F.D. properties file   722 does not exist.
 End of Minotr F.D. properties file   788 does not exist.
 Leave Link 1002 at Wed May 11 21:51:38 2022, MaxMem= 67108864000 cpu:              47.7 elap:               1.7
 (Enter /cm/shared/apps/gaussian/intel/EM64T/SSE4_2-enabled/binary//g16/l811.exe)
 MDV= 67108864000.
 Form MO integral derivatives with frozen-active canonical formalism.
 MOERI=1 MOERIx=1 NAtoms=    19 NAtomX=    19.
 Discarding MO integrals.
 MO basis two electron integral derivatives will not be stored on disk.
 IAlg= 3 DoFC=T DoPWx=T Debug=F.
 Reordered first order wavefunction length =     20072448
 In DefCFB: NBatch=  1 ICI= 33 ICA= 96 LFMax= 96
            Large arrays: LIAPS=   210874752 LIARS=   111567456 words.
 In StABat: MaxSiz= 39 MinSiz= 13 NAtomB=  4
 DoIAMN: NPSUse= 28.
 Leave Link  811 at Wed May 11 21:52:19 2022, MaxMem= 67108864000 cpu:            1156.9 elap:              41.5
 (Enter /cm/shared/apps/gaussian/intel/EM64T/SSE4_2-enabled/binary//g16/l804.exe)
 Closed-shell transformation, MDV= 67108864000 ITran=4 ISComp=1.
 Semi-Direct transformation.
 ModeAB=           4 MOrb=            33 LenV=   67108319826
 LASXX=     28702344 LTotXX=    28702344 LenRXX=    58192761
 LTotAB=    29490417 MaxLAS=    32778900 LenRXY=           0
 NonZer=    86895105 LenScr=   131092480 LnRSAI=    32778900
 LnScr1=    49938432 LExtra=           0 Total=    272002573
 MaxDsk=          -1 SrtSym=           T ITran=            4
 DoSDTr:  NPSUse= 28
 JobTyp=0 Pass  1:  I=   1 to  33.
 (rs|ai) integrals will be sorted in core.
 Complete sort for first half transformation.
 First half transformation complete.
 Begin second half transformation for I=  10.
 Begin second half transformation for I=  20.
 Begin second half transformation for I=  30.
 Complete sort for second half transformation.
 Second half transformation complete.
 SymMOI:  orbitals are not symmetric.
 Spin components of T(2) and E(2):
     alpha-alpha T2 =       0.3676736808D-01 E2=     -0.1173896846D+00
     alpha-beta  T2 =       0.2143794891D+00 E2=     -0.6952986433D+00
     beta-beta   T2 =       0.3676736808D-01 E2=     -0.1173896846D+00
 ANorm=    0.1604938768D+01
 E2 =    -0.9300780125D+00 EUMP2 =    -0.25436720465516D+03
 Leave Link  804 at Wed May 11 21:52:24 2022, MaxMem= 67108864000 cpu:             144.9 elap:               5.2
 (Enter /cm/shared/apps/gaussian/intel/EM64T/SSE4_2-enabled/binary//g16/l1002.exe)
 Minotr:  Closed shell wavefunction.
          Computing MP2/KS-MP2 derivatives.
          Using Z-Vector for PSCF gradient.
          Skipping F1 and S1 gradient terms here.
          IDoAtm=1111111111111111111
          Using MO integrals in the linear equations.
          Forming densities via direct SCF.
          Differentiating once with respect to electric field.
                with respect to dipole field.
          Differentiating once with respect to nuclear coordinates.
          Requested convergence is 1.0D-10 RMS, and 1.0D-09 maximum.
          NewPWx=F KeepS1=T KeepF1=T KeepIn=T MapXYZ=F SortEE=F KeepMc=T.
          MDV=   67108864000 using IRadAn=       5.
          Solving linear equations separately, MaxMat=       0.
          There are     1 degrees of freedom in the 1st order CPHF.  IDoFFX=0 NUNeed=     1.
 FoFJK:  IHMeth= 1 ICntrl=       0 DoSepK=F KAlg= 0 I1Cent=           0 FoldK=F
 IRaf=         0 NMat=       1 IRICut=       1 DoRegI=T DoRafI=F ISym2E= 0 IDoP0=0 IntGTp=1.
 FoFCou: FMM=F IPFlag=           0 FMFlag=      100000 FMFlg1=           0
         NFxFlg=           0 DoJE=F BraDBF=F KetDBF=F FulRan=T
         wScrn=  0.000000 ICntrl=         0 IOpCl=  0 I1Cent=           0 NGrid=           0
         NMat0=    1 NMatS0=      1 NMatT0=    0 NMatD0=    1 NMtDS0=    0 NMtDT0=    0
 Symmetry not used in FoFCou.
 LinEq1:  Iter=  0 NonCon=     1 RMS=6.52D-03 Max=1.18D-01 NDo=     1
 LinEq1:  Iter=  1 NonCon=     1 RMS=1.42D-03 Max=1.09D-02 NDo=     1
 LinEq1:  Iter=  2 NonCon=     1 RMS=4.65D-04 Max=8.40D-03 NDo=     1
 LinEq1:  Iter=  3 NonCon=     1 RMS=1.79D-04 Max=1.82D-03 NDo=     1
 LinEq1:  Iter=  4 NonCon=     1 RMS=5.53D-05 Max=1.04D-03 NDo=     1
 LinEq1:  Iter=  5 NonCon=     1 RMS=1.60D-05 Max=2.54D-04 NDo=     1
 LinEq1:  Iter=  6 NonCon=     1 RMS=5.96D-06 Max=7.31D-05 NDo=     1
 LinEq1:  Iter=  7 NonCon=     1 RMS=1.27D-06 Max=1.56D-05 NDo=     1
 LinEq1:  Iter=  8 NonCon=     1 RMS=5.47D-07 Max=6.85D-06 NDo=     1
 LinEq1:  Iter=  9 NonCon=     1 RMS=1.23D-07 Max=1.85D-06 NDo=     1
 LinEq1:  Iter= 10 NonCon=     1 RMS=2.56D-08 Max=2.16D-07 NDo=     1
 LinEq1:  Iter= 11 NonCon=     1 RMS=1.08D-08 Max=1.09D-07 NDo=     1
 LinEq1:  Iter= 12 NonCon=     1 RMS=2.11D-09 Max=2.52D-08 NDo=     1
 LinEq1:  Iter= 13 NonCon=     1 RMS=4.26D-10 Max=5.41D-09 NDo=     1
 LinEq1:  Iter= 14 NonCon=     1 RMS=1.52D-10 Max=1.85D-09 NDo=     1
 LinEq1:  Iter= 15 NonCon=     0 RMS=4.89D-11 Max=8.16D-10 NDo=     1
 Linear equations converged to 1.000D-10 1.000D-09 after    15 iterations.
 End of Minotr F.D. properties file   721 does not exist.
 End of Minotr F.D. properties file   722 does not exist.
 End of Minotr F.D. properties file   788 does not exist.
 Leave Link 1002 at Wed May 11 21:52:27 2022, MaxMem= 67108864000 cpu:              67.6 elap:               2.5
 (Enter /cm/shared/apps/gaussian/intel/EM64T/SSE4_2-enabled/binary//g16/l1102.exe)
 Use density number 2.
 Symmetrizing basis deriv contribution to polar:
 IMax=3 JMax=2 DiffMx= 0.00D+00
 Leave Link 1102 at Wed May 11 21:52:27 2022, MaxMem= 67108864000 cpu:               1.5 elap:               0.1
 (Enter /cm/shared/apps/gaussian/intel/EM64T/SSE4_2-enabled/binary//g16/l1110.exe)
 Forming Gx(P) for generalized density number  2 NAtomX=    19.
 Integral derivatives from FoFJK, PRISM(SPDF).
 Do as many integral derivatives as possible in FoFJK.
 G2DrvN: MDV=   67108862534.
 G2DrvN: will do    20 centers at a time, making    1 passes.
 Calling FoFCou, ICntrl=  3107 FMM=F I1Cent=   0 AccDes= 0.00D+00.
 FoFJK:  IHMeth= 1 ICntrl=    3107 DoSepK=F KAlg= 0 I1Cent=           0 FoldK=F
 IRaf=         0 NMat=       1 IRICut=       1 DoRegI=T DoRafI=F ISym2E= 0 IDoP0=0 IntGTp=1.
 FoFCou: FMM=F IPFlag=           0 FMFlag=      100000 FMFlg1=           0
         NFxFlg=           0 DoJE=F BraDBF=F KetDBF=F FulRan=T
         wScrn=  0.000000 ICntrl=      3107 IOpCl=  0 I1Cent=           0 NGrid=           0
         NMat0=    1 NMatS0=      1 NMatT0=    0 NMatD0=    1 NMtDS0=    0 NMtDT0=    0
 Symmetry not used in FoFCou.
 End of G2Drv F.D. properties file   721 does not exist.
 End of G2Drv F.D. properties file   722 does not exist.
 End of G2Drv F.D. properties file   788 does not exist.
 Leave Link 1110 at Wed May 11 21:52:27 2022, MaxMem= 67108864000 cpu:              11.7 elap:               0.4
 (Enter /cm/shared/apps/gaussian/intel/EM64T/SSE4_2-enabled/binary//g16/l1112.exe)
 MP22nd: MDV=   67108864000
 This link is doing NAtomX=    19 total of    60 degrees of freedom.
 Using ON3 I/O method in MakUI.
 Using Ix for Sx.
 Using OV2 memory method for fx*t*t/D, MaxI=    33 DoOO2=F NP=  28.
 R2 and R3 integrals will be kept in memory, NReq=    71415045.
 FoFCou: FMM=F IPFlag=           0 FMFlag=           0 FMFlg1=           0
         NFxFlg=           0 DoJE=F BraDBF=F KetDBF=F FulRan=T
         wScrn=  0.000000 ICntrl=       600 IOpCl=  0 I1Cent=           0 NGrid=           0
         NMat0=    1 NMatS0=      1 NMatT0=    0 NMatD0=    1 NMtDS0=    0 NMtDT0=    0
 Symmetry not used in FoFCou.
 DD1Dir will call FoFMem   1 times, MxPair=      1122
 NAB=   561 NAA=     0 NBB=     0.
 Symmetry is being used.
 FoFJK:  IHMeth= 1 ICntrl=       0 DoSepK=F KAlg= 0 I1Cent=           0 FoldK=F
 IRaf=         0 NMat=      60 IRICut=     150 DoRegI=T DoRafI=T ISym2E= 2 IDoP0=0 IntGTp=1.
 Discarding MO integrals.
 Leave Link 1112 at Wed May 11 21:52:58 2022, MaxMem= 67108864000 cpu:             866.9 elap:              31.1
 (Enter /cm/shared/apps/gaussian/intel/EM64T/SSE4_2-enabled/binary//g16/l601.exe)
 Copying SCF densities to generalized density rwf, IOpCl= 0 IROHF=0.

 **********************************************************************

            Population analysis using the SCF density.

 **********************************************************************

 Orbital symmetries:
       Occupied  (A) (A) (A) (A) (A) (A) (A) (A) (A) (A) (A) (A)
                 (A) (A) (A) (A) (A) (A) (A) (A) (A) (A) (A) (A)
                 (A) (A) (A) (A) (A) (A) (A) (A) (A)
       Virtual   (A) (A) (A) (A) (A) (A) (A) (A) (A) (A) (A) (A)
                 (A) (A) (A) (A) (A) (A) (A) (A) (A) (A) (A) (A)
                 (A) (A) (A) (A) (A) (A) (A) (A) (A) (A) (A) (A)
                 (A) (A) (A) (A) (A) (A) (A) (A) (A) (A) (A) (A)
                 (A) (A) (A) (A) (A) (A) (A) (A) (A) (A) (A) (A)
                 (A) (A) (A) (A) (A) (A) (A) (A) (A) (A) (A) (A)
                 (A) (A) (A) (A) (A) (A) (A) (A) (A) (A) (A) (A)
                 (A) (A) (A) (A) (A) (A) (A) (A) (A) (A) (A) (A)
 The electronic state is 1-A.
 Alpha  occ. eigenvalues --   -5.40629  -3.40133  -3.39577  -3.39553  -1.69560
 Alpha  occ. eigenvalues --   -1.69049  -1.65804  -1.65086  -1.62738  -1.56340
 Alpha  occ. eigenvalues --   -1.06815  -1.05589  -1.04235  -1.03324  -1.02178
 Alpha  occ. eigenvalues --   -1.00196  -0.99443  -0.97478  -0.97240  -0.96273
 Alpha  occ. eigenvalues --   -0.96268  -0.91671  -0.90191  -0.87043  -0.85474
 Alpha  occ. eigenvalues --   -0.83696  -0.82944  -0.81182  -0.80740  -0.79952
 Alpha  occ. eigenvalues --   -0.76894  -0.75202  -0.74628
 Alpha virt. eigenvalues --   -0.22122  -0.17398  -0.16991  -0.13721  -0.13283
 Alpha virt. eigenvalues --   -0.09334  -0.08501  -0.07277  -0.07001  -0.05682
 Alpha virt. eigenvalues --   -0.04854  -0.04390  -0.03735  -0.03003  -0.02178
 Alpha virt. eigenvalues --   -0.00397   0.00291   0.00769   0.01425   0.01977
 Alpha virt. eigenvalues --    0.02237   0.02784   0.03224   0.04407   0.05457
 Alpha virt. eigenvalues --    0.06729   0.08102   0.10284   0.11098   0.11364
 Alpha virt. eigenvalues --    0.12549   0.12903   0.13486   0.14881   0.16570
 Alpha virt. eigenvalues --    0.17583   0.18152   0.18893   0.21323   0.22218
 Alpha virt. eigenvalues --    0.25462   0.26204   0.30527   0.31173   0.37594
 Alpha virt. eigenvalues --    0.64902   0.65045   0.69910   0.72029   0.96307
 Alpha virt. eigenvalues --    0.98900   1.02109   1.06785   1.07458   1.08399
 Alpha virt. eigenvalues --    1.09114   1.10355   1.11295   1.12038   1.12447
 Alpha virt. eigenvalues --    1.13933   1.14319   1.15890   1.16406   1.18635
 Alpha virt. eigenvalues --    1.19228   1.19604   1.20225   1.20788   1.21504
 Alpha virt. eigenvalues --    1.22880   1.24101   1.25202   1.28494   1.30057
 Alpha virt. eigenvalues --    1.32977   1.34852   1.35421   1.36821   1.39341
 Alpha virt. eigenvalues --    1.39789   1.47186   1.52876   1.62800   2.16972
 Alpha virt. eigenvalues --    2.31420   2.36040   2.74386   2.95237   3.10088
 Alpha virt. eigenvalues --    4.26520  15.50470  41.61088  41.62380  41.75770
 Alpha virt. eigenvalues --   81.48814
          Condensed to atoms (all electrons):
               1          2          3          4          5          6
     1  Hg  18.429601  -0.003736   0.000891   0.000939   0.110276  -0.002347
     2  O   -0.003736   6.413934   0.267072   0.267160  -0.000108   0.000004
     3  H    0.000891   0.267072   0.256300  -0.018020  -0.000000  -0.000000
     4  H    0.000939   0.267160  -0.018020   0.255552   0.000000   0.000000
     5  O    0.110276  -0.000108  -0.000000   0.000000   6.591202   0.157054
     6  H   -0.002347   0.000004  -0.000000   0.000000   0.157054   0.138496
     7  H   -0.005070   0.000007   0.000000  -0.000000   0.244758  -0.006285
     8  O    0.173235  -0.018333  -0.000370  -0.000428  -0.001157  -0.000029
     9  H   -0.013852   0.014836  -0.000132  -0.000144  -0.000076   0.000000
    10  H    0.000941  -0.000188  -0.000004  -0.000004   0.000038   0.000000
    11  O   -0.000444   0.000010  -0.000000  -0.000000  -0.053817   0.080603
    12  H    0.000347  -0.000000   0.000000   0.000000   0.001436  -0.002038
    13  H    0.000526   0.000000  -0.000000   0.000000   0.001795  -0.002093
    14  O   -0.000783  -0.000380   0.000015   0.000018  -0.000012   0.000000
    15  H    0.000141   0.000021  -0.000000  -0.000000   0.000000  -0.000000
    16  H    0.000257   0.000029  -0.000000  -0.000000   0.000002   0.000000
    17  O    0.000310  -0.000076   0.000002   0.000000   0.000001  -0.000000
    18  H    0.000038   0.000001   0.000000  -0.000000   0.000000  -0.000000
    19  H    0.000017  -0.000000  -0.000000  -0.000000  -0.000000   0.000000
               7          8          9         10         11         12
     1  Hg  -0.005070   0.173235  -0.013852   0.000941  -0.000444   0.000347
     2  O    0.000007  -0.018333   0.014836  -0.000188   0.000010  -0.000000
     3  H    0.000000  -0.000370  -0.000132  -0.000004  -0.000000   0.000000
     4  H   -0.000000  -0.000428  -0.000144  -0.000004  -0.000000   0.000000
     5  O    0.244758  -0.001157  -0.000076   0.000038  -0.053817   0.001436
     6  H   -0.006285  -0.000029   0.000000   0.000000   0.080603  -0.002038
     7  H    0.230380  -0.000069  -0.000000   0.000000   0.001111  -0.000022
     8  O   -0.000069   6.758857   0.214031   0.070551  -0.000002  -0.000000
     9  H   -0.000000   0.214031   0.182480  -0.000921   0.000003   0.000000
    10  H    0.000000   0.070551  -0.000921   0.132190  -0.000000  -0.000000
    11  O    0.001111  -0.000002   0.000003  -0.000000   6.361365   0.258018
    12  H   -0.000022  -0.000000   0.000000  -0.000000   0.258018   0.237372
    13  H   -0.000030   0.000002  -0.000000   0.000000   0.259361  -0.013268
    14  O    0.000001  -0.017363   0.000428   0.152966  -0.000000  -0.000000
    15  H   -0.000000  -0.000258   0.000001  -0.000063  -0.000000  -0.000000
    16  H   -0.000000   0.002149  -0.000002  -0.006235   0.000000   0.000000
    17  O   -0.000000  -0.000962   0.000033   0.000567  -0.000000  -0.000000
    18  H   -0.000000   0.000007  -0.000000  -0.000001  -0.000000  -0.000000
    19  H    0.000000   0.000051  -0.000000  -0.000005  -0.000000  -0.000000
              13         14         15         16         17         18
     1  Hg   0.000526  -0.000783   0.000141   0.000257   0.000310   0.000038
     2  O    0.000000  -0.000380   0.000021   0.000029  -0.000076   0.000001
     3  H   -0.000000   0.000015  -0.000000  -0.000000   0.000002   0.000000
     4  H    0.000000   0.000018  -0.000000  -0.000000   0.000000  -0.000000
     5  O    0.001795  -0.000012   0.000000   0.000002   0.000001   0.000000
     6  H   -0.002093   0.000000  -0.000000   0.000000  -0.000000  -0.000000
     7  H   -0.000030   0.000001  -0.000000  -0.000000  -0.000000  -0.000000
     8  O    0.000002  -0.017363  -0.000258   0.002149  -0.000962   0.000007
     9  H   -0.000000   0.000428   0.000001  -0.000002   0.000033  -0.000000
    10  H    0.000000   0.152966  -0.000063  -0.006235   0.000567  -0.000001
    11  O    0.259361  -0.000000  -0.000000   0.000000  -0.000000  -0.000000
    12  H   -0.013268  -0.000000  -0.000000   0.000000  -0.000000  -0.000000
    13  H    0.232771  -0.000000   0.000000   0.000000   0.000000   0.000000
    14  O   -0.000000   6.434367   0.170460   0.249977  -0.052938   0.001078
    15  H    0.000000   0.170460   0.144373  -0.005793   0.072699  -0.001451
    16  H    0.000000   0.249977  -0.005793   0.236660   0.000404  -0.000009
    17  O    0.000000  -0.052938   0.072699   0.000404   6.358298   0.262628
    18  H    0.000000   0.001078  -0.001451  -0.000009   0.262628   0.244625
    19  H    0.000000   0.002126  -0.001331  -0.000020   0.263412  -0.013857
              19
     1  Hg   0.000017
     2  O   -0.000000
     3  H   -0.000000
     4  H   -0.000000
     5  O   -0.000000
     6  H    0.000000
     7  H    0.000000
     8  O    0.000051
     9  H   -0.000000
    10  H   -0.000005
    11  O   -0.000000
    12  H   -0.000000
    13  H    0.000000
    14  O    0.002126
    15  H   -0.001331
    16  H   -0.000020
    17  O    0.263412
    18  H   -0.013857
    19  H    0.240536
 Mulliken charges:
               1
     1  Hg   1.308712
     2  O   -0.940254
     3  H    0.494245
     4  H    0.494926
     5  O   -1.051393
     6  H    0.636635
     7  H    0.535219
     8  O   -1.179911
     9  H    0.603315
    10  H    0.650168
    11  O   -0.906208
    12  H    0.518155
    13  H    0.520935
    14  O   -0.939961
    15  H    0.621201
    16  H    0.522581
    17  O   -0.904380
    18  H    0.506941
    19  H    0.509073
 Sum of Mulliken charges =   2.00000
 Mulliken charges with hydrogens summed into heavy atoms:
               1
     1  Hg   1.308712
     2  O    0.048917
     5  O    0.120461
     8  O   -0.576596
    11  O    0.132882
    14  O    0.853989
    17  O    0.111635
         Mulliken charges condensed to fragments:
      1      1.308712
      2      0.691288
 APT charges:
               1
     1  Hg   1.232724
     2  O   -0.725968
     3  H    0.354868
     4  H    0.355643
     5  O   -0.966054
     6  H    0.877168
     7  H    0.351628
     8  O   -1.055708
     9  H    0.561908
    10  H    0.847942
    11  O   -0.820473
    12  H    0.394226
    13  H    0.401364
    14  O   -1.037991
    15  H    0.850116
    16  H    0.400101
    17  O   -0.808872
    18  H    0.391255
    19  H    0.396124
 Sum of APT charges =   2.00000
 APT charges with hydrogens summed into heavy atoms:
               1
     1  Hg   1.232724
     2  O   -0.015458
     5  O    0.262742
     8  O   -0.493800
    11  O   -0.024884
    14  O    1.060168
    17  O   -0.021492
         APT charges condensed to fragments:
      1      1.232724
      2      0.767276
 Electronic spatial extent (au):  <R**2>=           2514.6323
 Charge=              2.0000 electrons
 Dipole moment (field-independent basis, Debye):
    X=              3.5110    Y=              0.6213    Z=              0.9606  Tot=              3.6927
 Quadrupole moment (field-independent basis, Debye-Ang):
   XX=             98.9696   YY=            -25.8263   ZZ=            -44.9561
   XY=              0.0681   XZ=              5.2825   YZ=             -0.0281
 Traceless Quadrupole moment (field-independent basis, Debye-Ang):
   XX=             89.5739   YY=            -35.2220   ZZ=            -54.3519
   XY=              0.0681   XZ=              5.2825   YZ=             -0.0281
 Octapole moment (field-independent basis, Debye-Ang**2):
  XXX=            145.3642  YYY=             78.7579  ZZZ=             -8.1855  XYY=             49.4540
  XXY=           -120.4744  XXZ=             34.7986  XZZ=             -7.7097  YZZ=             -4.1212
  YYZ=             -0.0522  XYZ=              9.4918
 Hexadecapole moment (field-independent basis, Debye-Ang**3):
 XXXX=           2003.5571 YYYY=           -123.8549 ZZZZ=           -109.1617 XXXY=           -386.3932
 XXXZ=           -193.6405 YYYX=            134.2554 YYYZ=             30.4695 ZZZX=             83.9903
 ZZZY=             -6.7809 XXYY=           -175.4496 XXZZ=           -327.1607 YYZZ=            -73.9468
 XXYZ=             -9.4173 YYXZ=            -45.9938 ZZXY=              9.5182
 N-N= 3.135092318490D+02 E-N=-1.172892348387D+03  KE= 1.319421505797D+02
  Exact polarizability:  80.103   3.677  52.528  -0.316   0.807  48.188
 Approx polarizability:  43.305   1.114  35.610  -1.012   0.376  34.448
 No NMR shielding tensors so no spin-rotation constants.
 Leave Link  601 at Wed May 11 21:52:59 2022, MaxMem= 67108864000 cpu:               3.5 elap:               0.2
 (Enter /cm/shared/apps/gaussian/intel/EM64T/SSE4_2-enabled/binary//g16/l701.exe)
 ... and contract with generalized density number  2.
 Compute integral second derivatives.
   1 Symmetry operations used in ECPInt.
 ECPInt:  NShTT=    2346 NPrTT=    7709 LenC2=    2235 LenP2D=    5549.
 LDataN:  DoStor=T MaxTD1= 9 Len=  602
 Leave Link  701 at Wed May 11 21:53:00 2022, MaxMem= 67108864000 cpu:              36.3 elap:               1.3
 (Enter /cm/shared/apps/gaussian/intel/EM64T/SSE4_2-enabled/binary//g16/l702.exe)
 L702 exits ... SP integral derivatives will be done elsewhere.
 Leave Link  702 at Wed May 11 21:53:00 2022, MaxMem= 67108864000 cpu:               0.9 elap:               0.1
 (Enter /cm/shared/apps/gaussian/intel/EM64T/SSE4_2-enabled/binary//g16/l703.exe)
 Integral derivatives from FoFJK, PRISM(SPDF).
 Compute integral second derivatives, UseDBF=F ICtDFT=           0.
 Calling FoFJK, ICntrl=  10100127 FMM=F ISym2X=0 I1Cent= 0 IOpClX= 0 NMat=1 NMatS=1 NMatT=0.
 FoFJK:  IHMeth= 1 ICntrl=10100127 DoSepK=F KAlg= 0 I1Cent=           0 FoldK=F
 IRaf=         0 NMat=       1 IRICut=       1 DoRegI=T DoRafI=F ISym2E= 0 IDoP0=0 IntGTp=1.
 FoFCou: FMM=F IPFlag=           0 FMFlag=      100000 FMFlg1=         800
         NFxFlg=           0 DoJE=F BraDBF=F KetDBF=F FulRan=T
         wScrn=  0.000000 ICntrl=  10100127 IOpCl=  0 I1Cent=           0 NGrid=           0
         NMat0=    1 NMatS0=      1 NMatT0=    0 NMatD0=    1 NMtDS0=    0 NMtDT0=    0
 Symmetry not used in FoFCou.
 Leave Link  703 at Wed May 11 21:53:01 2022, MaxMem= 67108864000 cpu:              19.4 elap:               0.7
 (Enter /cm/shared/apps/gaussian/intel/EM64T/SSE4_2-enabled/binary//g16/l716.exe)
 Dipole        = 1.51046874D+00 2.26483248D-01 4.39713275D-01
 Polarizability= 8.01026608D+01 3.67673155D+00 5.25281507D+01
                -3.16432455D-01 8.07165779D-01 4.81876404D+01
 Full mass-weighted force constant matrix:
 Low frequencies --- -398.5204 -349.0961 -318.4520 -105.3204 -102.5025  -96.3666
 Low frequencies ---  -39.2360  -36.0436  -20.3951
 ******    6 imaginary frequencies (negative Signs) ****** 
 Diagonal vibrational polarizability:
      327.3845228    1012.4122866     447.1663824
 Harmonic frequencies (cm**-1), IR intensities (KM/Mole), Raman scattering
 activities (A**4/AMU), depolarization ratios for plane and unpolarized
 incident light, reduced masses (AMU), force constants (mDyne/A),
 and normal coordinates:
                      1                      2                      3
                      A                      A                      A
 Frequencies --   -398.1036              -348.1693              -317.3463
 Red. masses --      1.0129                 1.0273                 1.0325
 Frc consts  --      0.0946                 0.0734                 0.0613
 IR Inten    --     11.0233                44.7530                46.4572
  Atom  AN      X      Y      Z        X      Y      Z        X      Y      Z
     1  80    -0.00  -0.00   0.00    -0.00   0.00  -0.00    -0.00   0.00  -0.00
     2   8    -0.00   0.00   0.01     0.00  -0.00   0.01     0.00  -0.00   0.02
     3   1    -0.63   0.18  -0.26     0.02   0.00   0.03    -0.01   0.01   0.02
     4   1     0.66  -0.19   0.14    -0.04   0.00   0.01     0.00  -0.01   0.02
     5   8     0.00  -0.00  -0.00    -0.00   0.00  -0.00     0.01  -0.01   0.00
     6   1    -0.00   0.00  -0.00    -0.00   0.00  -0.00     0.00  -0.05   0.01
     7   1     0.00  -0.01  -0.00     0.00   0.01  -0.00     0.00  -0.03   0.00
     8   8     0.00  -0.00  -0.01    -0.00  -0.00   0.00     0.00  -0.00   0.00
     9   1     0.02  -0.01  -0.08    -0.00  -0.00   0.01     0.00  -0.00   0.00
    10   1     0.00  -0.00  -0.00    -0.01  -0.01  -0.00    -0.00  -0.00  -0.00
    11   8    -0.00   0.00  -0.00    -0.00  -0.00  -0.00    -0.01   0.03  -0.01
    12   1     0.00   0.01   0.00     0.00   0.00   0.01    -0.25  -0.36  -0.56
    13   1    -0.01   0.00  -0.01    -0.00  -0.01  -0.02     0.29   0.07   0.62
    14   8    -0.00   0.00   0.00     0.01   0.00   0.00    -0.00  -0.01  -0.01
    15   1     0.00   0.00   0.01     0.01   0.04   0.01    -0.00  -0.00  -0.01
    16   1    -0.00   0.00   0.00     0.01   0.02   0.00     0.00  -0.01  -0.01
    17   8    -0.00  -0.00   0.01    -0.01  -0.03  -0.01    -0.00  -0.00  -0.01
    18   1    -0.01   0.02  -0.02    -0.18   0.38  -0.58    -0.01   0.01  -0.02
    19   1     0.01  -0.00   0.03     0.27  -0.12   0.62     0.01  -0.00   0.00
                      4                      5                      6
                      A                      A                      A
 Frequencies --   -105.1372               -95.7680               -71.5374
 Red. masses --      2.3428                 2.5890                 2.9187
 Frc consts  --      0.0153                 0.0140                 0.0088
 IR Inten    --      5.3369                 4.9569                44.2949
  Atom  AN      X      Y      Z        X      Y      Z        X      Y      Z
     1  80    -0.00   0.01   0.00    -0.00  -0.00   0.01     0.00  -0.00   0.02
     2   8     0.03  -0.05  -0.10     0.04  -0.02  -0.05     0.05   0.01  -0.02
     3   1    -0.00  -0.33  -0.30     0.03  -0.18  -0.15     0.02  -0.36  -0.26
     4   1     0.18   0.19  -0.31     0.11   0.11  -0.16     0.25   0.32  -0.27
     5   8    -0.03   0.16  -0.09     0.01  -0.05   0.03     0.06  -0.10  -0.06
     6   1    -0.01   0.05  -0.04     0.01  -0.01   0.01     0.02  -0.06  -0.11
     7   1    -0.06   0.46  -0.07     0.03  -0.18   0.02     0.12  -0.22  -0.08
     8   8    -0.01  -0.04   0.08    -0.01  -0.01   0.04    -0.05   0.04   0.17
     9   1    -0.01  -0.04   0.13    -0.00  -0.01   0.07    -0.08   0.06   0.26
    10   1    -0.01  -0.05   0.05    -0.03  -0.08  -0.02    -0.02   0.06   0.09
    11   8     0.02  -0.15   0.04    -0.00   0.10  -0.02    -0.00   0.02  -0.15
    12   1    -0.16  -0.32   0.11     0.08   0.18  -0.06     0.08   0.09  -0.20
    13   1     0.25  -0.27   0.04    -0.11   0.16  -0.01    -0.10   0.07  -0.15
    14   8    -0.00  -0.05   0.02    -0.08  -0.17  -0.10     0.01   0.06   0.01
    15   1    -0.01  -0.03   0.02    -0.05  -0.09  -0.06    -0.04   0.07  -0.05
    16   1     0.00  -0.09   0.03    -0.14  -0.39  -0.06     0.09   0.04  -0.00
    17   8     0.00   0.02   0.01     0.04   0.19   0.04    -0.11  -0.02  -0.16
    18   1    -0.03   0.06   0.03    -0.15   0.44   0.17    -0.03  -0.12  -0.25
    19   1     0.05   0.04   0.01     0.36   0.30  -0.01    -0.24  -0.06  -0.16
                      7                      8                      9
                      A                      A                      A
 Frequencies --     20.3254                40.1982                41.6002
 Red. masses --      5.1016                 5.6025                 5.7242
 Frc consts  --      0.0012                 0.0053                 0.0058
 IR Inten    --     12.5091                 8.1482                 1.2973
  Atom  AN      X      Y      Z        X      Y      Z        X      Y      Z
     1  80    -0.01   0.03  -0.02    -0.04  -0.04  -0.03     0.02  -0.01  -0.05
     2   8     0.27   0.10   0.03     0.36  -0.07   0.10    -0.14   0.03   0.08
     3   1     0.31   0.04   0.02     0.40  -0.10   0.11    -0.18  -0.06   0.00
     4   1     0.32   0.10   0.02     0.41  -0.08   0.11    -0.08   0.11   0.01
     5   8     0.05  -0.19   0.07    -0.07   0.04  -0.02     0.03  -0.04  -0.07
     6   1     0.04  -0.18   0.06    -0.03   0.05   0.02     0.12   0.00  -0.00
     7   1     0.05  -0.40   0.06    -0.10   0.11  -0.00    -0.02  -0.03  -0.06
     8   8    -0.03   0.12  -0.05    -0.04  -0.06  -0.00    -0.05   0.03   0.15
     9   1    -0.01   0.12  -0.03     0.02  -0.06   0.01    -0.08   0.04   0.19
    10   1    -0.08   0.06  -0.06     0.01   0.03   0.07    -0.09   0.01   0.17
    11   8     0.05  -0.23   0.07     0.01   0.10   0.09     0.28   0.11   0.25
    12   1     0.02  -0.25   0.13     0.03   0.12   0.09     0.28   0.14   0.34
    13   1     0.09  -0.27   0.04    -0.00   0.13   0.13     0.27   0.14   0.35
    14   8    -0.16  -0.04  -0.06     0.10   0.17   0.12    -0.11  -0.04   0.13
    15   1    -0.11  -0.06   0.00     0.06   0.18   0.07    -0.14  -0.02   0.11
    16   1    -0.22  -0.14  -0.04     0.15   0.35   0.09    -0.09  -0.12   0.13
    17   8    -0.05  -0.09   0.09     0.01   0.20  -0.01    -0.19   0.02   0.02
    18   1    -0.06  -0.08   0.12     0.04   0.17  -0.04    -0.18   0.03  -0.01
    19   1    -0.03  -0.10   0.14    -0.02   0.19  -0.04    -0.19   0.03  -0.01
                     10                     11                     12
                      A                      A                      A
 Frequencies --     77.1125               109.5995               131.1760
 Red. masses --      4.6651                 5.5784                 4.3238
 Frc consts  --      0.0163                 0.0395                 0.0438
 IR Inten    --     15.6512                 6.3741                 8.5033
  Atom  AN      X      Y      Z        X      Y      Z        X      Y      Z
     1  80    -0.04   0.00  -0.00    -0.02   0.07  -0.03     0.03  -0.02  -0.05
     2   8    -0.03   0.02   0.05    -0.06  -0.21   0.00    -0.04   0.06   0.09
     3   1    -0.06  -0.27  -0.14    -0.10  -0.28  -0.06    -0.07  -0.34  -0.17
     4   1     0.11   0.26  -0.15    -0.05  -0.13  -0.06     0.16   0.40  -0.19
     5   8     0.00  -0.06  -0.09     0.03  -0.18   0.13    -0.08   0.08   0.24
     6   1     0.04  -0.03  -0.08     0.01  -0.11   0.09    -0.09   0.08   0.27
     7   1     0.01  -0.06  -0.10     0.02  -0.58   0.11    -0.18  -0.00   0.25
     8   8    -0.08   0.02   0.12     0.04  -0.20   0.07    -0.04   0.06   0.15
     9   1    -0.12   0.04   0.24     0.11  -0.21   0.11    -0.11   0.08   0.32
    10   1     0.08   0.04  -0.13     0.10  -0.22   0.14    -0.01   0.07   0.03
    11   8     0.12   0.06   0.06    -0.03  -0.08   0.04    -0.23   0.00   0.07
    12   1     0.15   0.10   0.09     0.03  -0.03   0.04    -0.24  -0.02  -0.01
    13   1     0.09   0.10   0.12    -0.09  -0.06   0.00    -0.23  -0.02   0.01
    14   8     0.11   0.07  -0.18     0.18  -0.09   0.17    -0.01   0.04  -0.03
    15   1     0.17   0.06  -0.13     0.13  -0.06   0.10    -0.01   0.05  -0.01
    16   1     0.07   0.03  -0.17     0.24   0.05   0.14    -0.03  -0.06  -0.01
    17   8     0.29  -0.13   0.10     0.05   0.00  -0.03     0.02  -0.02   0.03
    18   1     0.34  -0.20   0.14     0.05   0.00  -0.07     0.05  -0.06   0.02
    19   1     0.22  -0.18   0.21     0.03   0.01  -0.09    -0.02  -0.05   0.07
                     13                     14                     15
                      A                      A                      A
 Frequencies --    220.3133               227.6348               295.5544
 Red. masses --      2.3440                 3.7988                 1.1835
 Frc consts  --      0.0670                 0.1160                 0.0609
 IR Inten    --     28.4450                49.0177                69.9450
  Atom  AN      X      Y      Z        X      Y      Z        X      Y      Z
     1  80    -0.01  -0.00  -0.01    -0.02  -0.01   0.00     0.00   0.01  -0.00
     2   8     0.05   0.11  -0.12    -0.01   0.29   0.05     0.00  -0.02  -0.01
     3   1     0.06   0.68   0.24     0.01  -0.13  -0.19     0.01  -0.01   0.00
     4   1    -0.15  -0.38   0.29     0.16   0.64  -0.24     0.01  -0.04   0.01
     5   8    -0.02   0.00  -0.01    -0.02  -0.03  -0.03    -0.00  -0.06  -0.04
     6   1    -0.01   0.00  -0.00    -0.00  -0.05  -0.02     0.07  -0.33   0.09
     7   1    -0.03  -0.00  -0.00    -0.03   0.10  -0.03    -0.14   0.58   0.02
     8   8    -0.05   0.03   0.20     0.06  -0.01  -0.14     0.00   0.01  -0.00
     9   1     0.05  -0.02  -0.19    -0.03   0.02   0.14     0.00   0.01  -0.01
    10   1     0.08  -0.05   0.13     0.21  -0.16   0.10     0.02   0.01   0.01
    11   8    -0.03  -0.01   0.01    -0.00   0.00   0.01    -0.04  -0.04   0.04
    12   1    -0.05  -0.03   0.02     0.03   0.03  -0.02     0.27   0.20  -0.27
    13   1    -0.02  -0.03  -0.00    -0.05   0.04   0.04    -0.44   0.22   0.18
    14   8     0.08  -0.07   0.03     0.15  -0.15   0.14     0.01  -0.00  -0.01
    15   1     0.06  -0.04  -0.02     0.14  -0.17   0.08     0.04   0.06   0.02
    16   1     0.11  -0.18   0.03     0.16  -0.08   0.14    -0.05  -0.11   0.02
    17   8     0.03  -0.01  -0.03     0.02  -0.02  -0.02    -0.01   0.01   0.01
    18   1     0.02   0.02  -0.04    -0.05   0.08  -0.05     0.05  -0.06  -0.06
    19   1     0.06   0.01  -0.08     0.11   0.04  -0.15    -0.11  -0.04   0.05
                     16                     17                     18
                      A                      A                      A
 Frequencies --    309.3392               364.6468               408.1081
 Red. masses --      1.1357                 3.6549                 3.7051
 Frc consts  --      0.0640                 0.2863                 0.3636
 IR Inten    --    133.1550               246.8864                42.4021
  Atom  AN      X      Y      Z        X      Y      Z        X      Y      Z
     1  80     0.00   0.00  -0.00    -0.02  -0.01  -0.01    -0.01  -0.01  -0.00
     2   8     0.00  -0.00   0.01     0.00   0.08  -0.02    -0.01  -0.14   0.02
     3   1    -0.02   0.01   0.00     0.03   0.09   0.01     0.02  -0.17   0.02
     4   1    -0.02  -0.00   0.01     0.02   0.05   0.00     0.02  -0.16   0.03
     5   8     0.00  -0.01  -0.00     0.06   0.11   0.24    -0.00   0.03   0.06
     6   1     0.01  -0.07   0.03    -0.04  -0.06   0.42    -0.02   0.03   0.10
     7   1    -0.03   0.13   0.01    -0.04   0.35   0.27    -0.02   0.16   0.08
     8   8    -0.01   0.01   0.02    -0.00  -0.12   0.03    -0.05   0.27  -0.06
     9   1    -0.00   0.01   0.01     0.07  -0.14   0.03    -0.17   0.30  -0.10
    10   1    -0.05  -0.02  -0.05    -0.10  -0.03  -0.04     0.11   0.16   0.22
    11   8    -0.00  -0.02   0.00     0.22  -0.05  -0.15     0.06  -0.00  -0.05
    12   1     0.07   0.04  -0.07     0.43   0.10  -0.38     0.06  -0.02  -0.06
    13   1    -0.09   0.04   0.03     0.01   0.09  -0.07     0.08  -0.02  -0.07
    14   8    -0.03   0.02   0.02    -0.04   0.01  -0.01    -0.02  -0.04   0.16
    15   1    -0.16  -0.29  -0.10    -0.04   0.07   0.03    -0.04  -0.06   0.21
    16   1     0.20   0.49  -0.07    -0.04   0.08  -0.02    -0.12  -0.50   0.22
    17   8     0.01  -0.06  -0.04     0.01   0.01   0.00     0.15  -0.03  -0.12
    18   1    -0.27   0.26   0.31     0.08  -0.08  -0.04     0.12   0.03  -0.14
    19   1     0.49   0.14  -0.18    -0.09  -0.04   0.07     0.24   0.01  -0.18
                     19                     20                     21
                      A                      A                      A
 Frequencies --    428.4703               457.7117               492.1062
 Red. masses --      3.8290                 1.4597                 1.4672
 Frc consts  --      0.4142                 0.1802                 0.2093
 IR Inten    --    248.7602                68.3999                82.1251
  Atom  AN      X      Y      Z        X      Y      Z        X      Y      Z
     1  80    -0.01  -0.00  -0.00     0.00   0.00  -0.00     0.00  -0.00   0.00
     2   8    -0.00  -0.08   0.01    -0.00   0.01   0.01     0.01  -0.02  -0.00
     3   1     0.01  -0.10   0.01     0.00   0.01   0.01    -0.05  -0.00  -0.02
     4   1     0.01  -0.09   0.02     0.01   0.00   0.01    -0.05  -0.00  -0.02
     5   8     0.00   0.01   0.06    -0.01  -0.15   0.03     0.00   0.01   0.00
     6   1     0.01   0.05   0.09    -0.00   0.16   0.06     0.01  -0.00   0.00
     7   1    -0.03   0.19   0.08    -0.08   0.71   0.08     0.00  -0.02   0.00
     8   8    -0.05   0.14  -0.02     0.01  -0.02   0.01    -0.04   0.08   0.00
     9   1    -0.14   0.15  -0.03     0.02  -0.02   0.02    -0.04   0.09  -0.02
    10   1     0.31  -0.05   0.03    -0.03  -0.02  -0.02    -0.01  -0.24  -0.21
    11   8     0.06   0.00  -0.05    -0.00   0.07  -0.03     0.00  -0.00   0.00
    12   1     0.01  -0.04  -0.04    -0.30  -0.18   0.21     0.01   0.01  -0.01
    13   1     0.12  -0.04  -0.10     0.37  -0.20  -0.27    -0.01   0.01   0.01
    14   8     0.25  -0.02  -0.11    -0.02  -0.00  -0.00    -0.01  -0.13   0.00
    15   1     0.31  -0.12  -0.28    -0.02   0.01   0.01     0.05   0.02   0.01
    16   1     0.28  -0.14  -0.11    -0.01   0.06  -0.01     0.12   0.77  -0.10
    17   8    -0.22  -0.02   0.15     0.01   0.01  -0.01     0.02   0.06   0.01
    18   1    -0.40   0.22   0.19     0.03  -0.02  -0.02     0.21  -0.17  -0.18
    19   1    -0.01   0.12  -0.10    -0.02  -0.01   0.02    -0.30  -0.09   0.15
                     22                     23                     24
                      A                      A                      A
 Frequencies --    572.0015               588.0513               606.5856
 Red. masses --      1.1682                 1.0662                 4.0146
 Frc consts  --      0.2252                 0.2172                 0.8703
 IR Inten    --    458.9546               222.7608               150.0246
  Atom  AN      X      Y      Z        X      Y      Z        X      Y      Z
     1  80     0.00   0.00   0.00    -0.00  -0.00  -0.00    -0.01  -0.00  -0.00
     2   8    -0.09   0.03  -0.03    -0.01   0.00   0.00     0.02   0.00   0.00
     3   1     0.61  -0.27   0.21     0.05  -0.03   0.01    -0.10   0.05  -0.04
     4   1     0.61  -0.27   0.19     0.05  -0.02   0.01    -0.10   0.05  -0.03
     5   8     0.02   0.00  -0.00    -0.01  -0.00   0.00     0.37   0.07   0.01
     6   1     0.02   0.00  -0.01    -0.01  -0.00   0.00     0.46   0.05  -0.04
     7   1     0.02  -0.01  -0.00    -0.01  -0.00  -0.00     0.29   0.17   0.03
     8   8    -0.01  -0.01  -0.00     0.02   0.01  -0.02    -0.16  -0.04  -0.05
     9   1    -0.08  -0.00  -0.02     0.01   0.01  -0.02    -0.10  -0.05  -0.02
    10   1     0.00  -0.03  -0.05    -0.12   0.02   0.33    -0.02  -0.05   0.08
    11   8    -0.01   0.00   0.01     0.00  -0.00  -0.00    -0.09   0.04   0.13
    12   1    -0.01  -0.01  -0.00     0.01   0.00   0.00    -0.21  -0.18  -0.31
    13   1    -0.00  -0.00  -0.00     0.00   0.00   0.01    -0.10  -0.14  -0.45
    14   8    -0.00  -0.00   0.00    -0.00  -0.02   0.01     0.01  -0.00   0.01
    15   1     0.02  -0.02   0.02    -0.20   0.13  -0.29    -0.01   0.03  -0.05
    16   1    -0.03   0.08  -0.00     0.49  -0.12  -0.09     0.06  -0.09   0.01
    17   8     0.00   0.00   0.00    -0.01   0.03  -0.04     0.01  -0.00  -0.01
    18   1    -0.00   0.01  -0.04     0.05  -0.17   0.41     0.01  -0.01   0.04
    19   1     0.00   0.01  -0.02    -0.02  -0.14   0.49     0.01  -0.01   0.03
                     25                     26                     27
                      A                      A                      A
 Frequencies --    667.1366               681.4873               696.4603
 Red. masses --      1.3129                 1.1612                 7.2417
 Frc consts  --      0.3443                 0.3177                 2.0696
 IR Inten    --    314.2010               316.5919               102.6616
  Atom  AN      X      Y      Z        X      Y      Z        X      Y      Z
     1  80     0.00   0.00  -0.00     0.00   0.00   0.00    -0.05  -0.02  -0.02
     2   8     0.00   0.00   0.00    -0.00   0.00  -0.00    -0.01  -0.02   0.00
     3   1    -0.01   0.01  -0.00     0.01  -0.01  -0.00     0.05  -0.05   0.02
     4   1    -0.02   0.01  -0.00     0.01   0.01  -0.00     0.05  -0.04   0.02
     5   8     0.07   0.01   0.02    -0.02  -0.00  -0.00     0.24   0.04   0.02
     6   1    -0.03  -0.05  -0.10    -0.01   0.00   0.01     0.15  -0.02  -0.06
     7   1     0.12   0.14   0.02    -0.02  -0.02  -0.00     0.27   0.18   0.02
     8   8    -0.08  -0.02  -0.02    -0.01  -0.01  -0.01     0.51   0.14   0.14
     9   1    -0.05  -0.02  -0.01     0.00  -0.01  -0.01     0.36   0.15   0.08
    10   1    -0.02  -0.02   0.05    -0.14   0.05   0.32     0.03   0.22  -0.03
    11   8    -0.04  -0.02  -0.08     0.01   0.00   0.01    -0.07   0.00   0.00
    12   1    -0.00   0.19   0.66     0.00  -0.02  -0.07    -0.09   0.07   0.34
    13   1     0.09   0.15   0.64    -0.01  -0.02  -0.07     0.01   0.05   0.27
    14   8    -0.00  -0.00   0.00    -0.04   0.00  -0.01    -0.02   0.00  -0.03
    15   1    -0.02   0.01  -0.03    -0.21   0.07  -0.22    -0.08  -0.03   0.02
    16   1     0.06  -0.03  -0.01     0.52  -0.05  -0.12     0.11   0.13  -0.07
    17   8     0.01  -0.00   0.01     0.03  -0.01   0.08    -0.01   0.00   0.04
    18   1     0.01   0.01  -0.05     0.05   0.11  -0.50     0.00   0.02  -0.15
    19   1    -0.00   0.01  -0.04    -0.11   0.10  -0.44    -0.07   0.03  -0.10
                     28                     29                     30
                      A                      A                      A
 Frequencies --    980.8181              1063.1620              1160.2362
 Red. masses --      1.0602                 1.0542                 1.0541
 Frc consts  --      0.6009                 0.7020                 0.8360
 IR Inten    --     38.4319               158.8686                66.0166
  Atom  AN      X      Y      Z        X      Y      Z        X      Y      Z
     1  80     0.00   0.00  -0.00    -0.00   0.00   0.00     0.00   0.00  -0.00
     2   8    -0.00  -0.00   0.00     0.01  -0.00  -0.04     0.01   0.00   0.00
     3   1    -0.00  -0.01  -0.00    -0.03   0.19   0.05    -0.01  -0.01  -0.01
     4   1     0.00   0.00  -0.00    -0.01  -0.18   0.10    -0.02   0.02  -0.01
     5   8    -0.03  -0.01   0.04    -0.00   0.00   0.00     0.00  -0.00   0.00
     6   1    -0.42  -0.01  -0.26    -0.01  -0.00  -0.01     0.00  -0.00  -0.01
     7   1     0.82   0.18  -0.16     0.02   0.00  -0.00     0.01   0.00  -0.00
     8   8    -0.01   0.00   0.00     0.01  -0.01  -0.03     0.00  -0.04   0.01
     9   1     0.01  -0.00  -0.01    -0.30   0.11   0.90    -0.34  -0.02  -0.18
    10   1    -0.01  -0.00  -0.00     0.05   0.05  -0.01     0.51   0.64  -0.03
    11   8     0.01  -0.00   0.03     0.00  -0.00  -0.00     0.00  -0.00  -0.00
    12   1     0.03  -0.00  -0.12     0.00   0.00   0.00     0.00  -0.00  -0.00
    13   1    -0.07   0.01  -0.04    -0.00   0.00   0.00    -0.00   0.00  -0.00
    14   8     0.00  -0.00  -0.00    -0.00  -0.00   0.00    -0.03  -0.02  -0.00
    15   1    -0.00   0.00   0.00    -0.01  -0.02  -0.01    -0.00  -0.36   0.05
    16   1     0.00  -0.00   0.00     0.03   0.00  -0.00     0.15   0.06  -0.04
    17   8    -0.00  -0.00   0.00     0.00   0.00  -0.00    -0.00   0.02   0.00
    18   1    -0.00   0.00  -0.00     0.01  -0.01   0.00     0.06  -0.05  -0.05
    19   1     0.00   0.00  -0.00    -0.01  -0.00   0.01    -0.07  -0.03   0.09
                     31                     32                     33
                      A                      A                      A
 Frequencies --   1368.4598              1424.6754              1485.8937
 Red. masses --      1.0640                 1.0564                 1.0731
 Frc consts  --      1.1740                 1.2634                 1.3960
 IR Inten    --     85.7911               219.5088               302.7198
  Atom  AN      X      Y      Z        X      Y      Z        X      Y      Z
     1  80    -0.00  -0.00   0.00    -0.00   0.00   0.00    -0.00  -0.00   0.00
     2   8    -0.01  -0.00  -0.00     0.00  -0.00  -0.00    -0.01  -0.00  -0.00
     3   1     0.03   0.01   0.03    -0.00   0.00  -0.00     0.02   0.01   0.02
     4   1     0.04   0.01  -0.01    -0.00   0.00  -0.00     0.03   0.01  -0.01
     5   8    -0.00  -0.00  -0.00     0.00  -0.03  -0.02     0.00   0.00  -0.00
     6   1    -0.01   0.05   0.03     0.10   0.93   0.13    -0.03  -0.02   0.03
     7   1    -0.00  -0.00  -0.00     0.06   0.05  -0.03    -0.00  -0.00  -0.00
     8   8    -0.05   0.02  -0.01     0.00  -0.00  -0.00    -0.02  -0.00  -0.01
     9   1     0.79  -0.07   0.25    -0.04   0.00  -0.01     0.35  -0.05   0.10
    10   1     0.06   0.14  -0.09     0.00   0.00   0.01     0.23   0.43   0.15
    11   8    -0.00  -0.00   0.00    -0.01  -0.04   0.01    -0.00   0.00   0.00
    12   1     0.01   0.01  -0.01     0.18   0.11  -0.13     0.00   0.00   0.00
    13   1    -0.00   0.00   0.01    -0.10   0.07   0.16     0.01  -0.01  -0.00
    14   8     0.01   0.01  -0.00    -0.00  -0.00   0.00    -0.01  -0.05  -0.01
    15   1    -0.06  -0.47   0.05     0.01   0.04   0.00     0.20   0.68   0.10
    16   1     0.10  -0.08  -0.02    -0.01   0.01   0.00    -0.01   0.19  -0.00
    17   8    -0.00   0.02   0.00     0.00  -0.00  -0.00    -0.00  -0.03  -0.01
    18   1     0.07  -0.06  -0.06    -0.01   0.01   0.01    -0.10   0.09   0.10
    19   1    -0.06  -0.02   0.07     0.00   0.00  -0.00     0.10   0.03  -0.09
                     34                     35                     36
                      A                      A                      A
 Frequencies --   1575.8912              1693.1126              1734.2641
 Red. masses --      1.1246                 1.0782                 1.0890
 Frc consts  --      1.6455                 1.8211                 1.9298
[...]
 ,-0.00017107,-0.00012792,0.00032819,0.01242200,-0.19154477,-0.31673640
 ,-0.00280958,-0.03455073,-0.03240498,-0.00921217,0.22564599,0.34628263
 ,-0.14779416,-0.04876362,-0.02172959,0.00053642,-0.00278390,0.00035224
 ,-0.00010743,0.00019689,-0.00020749,-0.00033695,0.00020098,0.00018275,
 0.36897995,-0.04151807,-0.03331730,-0.00986871,-0.00035626,-0.00015086
 ,-0.00006252,0.00012669,0.00002007,-0.00001583,0.00011864,0.00002773,0
 .00005383,0.02491340,0.06156256,-0.03829037,-0.01757195,-0.04325476,0.
 00016073,-0.00008492,0.00014036,-0.00012581,-0.00006289,-0.00012628,0.
 00004758,-0.00000482,-0.00005721,0.05977462,0.00550487,0.60454014,-0.0
 1833638,-0.00454853,-0.00422456,-0.00002300,0.00173202,0.00003205,-0.0
 0004672,-0.00022218,0.00002521,0.00014002,-0.00017266,-0.00016680,-0.0
 9444527,0.00671677,0.03787960,0.08909328,-0.00667166,0.00060877,0.0039
 9611,0.00027876,-0.00029028,0.00001529,-0.00007923,0.00004318,-0.00000
 233,-0.00015928,0.00001083,0.00000467,0.01419897,-0.03561740,-0.016077
 72,-0.00184345,0.06761742,0.00262065,0.00439003,0.01298140,0.00009178,
 -0.00142908,-0.00007217,0.00005516,0.00016932,0.00000635,-0.00016963,0
 .00009913,0.00018278,0.00052805,-0.00314339,-0.08269989,-0.00052446,-0
 .00158796,0.09164768,-0.00794975,-0.00133929,-0.01885396,0.00003786,0.
 00002902,0.00005583,-0.00002077,-0.00004469,-0.00003887,0.00002411,-0.
 00001632,-0.00000944,-0.07900785,0.00348125,-0.10784075,0.01988093,-0.
 00225029,0.02175840,0.07603890,-0.00644703,0.00067320,-0.00804872,0.00
 027813,-0.00009878,0.00014451,-0.00015084,-0.00000702,-0.00005554,-0.0
 0008733,0.00001578,-0.00004746,0.00541789,-0.01164947,0.03292427,0.000
 81328,0.00351203,-0.00658840,-0.00023025,0.00708991,-0.00052389,0.0022
 7031,-0.00010334,0.00005356,0.00041719,-0.00014297,0.00001311,-0.00000
 574,0.00009064,-0.00003238,-0.00005705,0.00000725,-0.08946852,0.012228
 88,-0.46263150,-0.01366040,0.00553307,-0.01504268,0.09933839,-0.019323
 68,0.47738734,-0.21015760,-0.05002939,-0.05368126,0.00928255,-0.003290
 50,-0.00007151,-0.00069454,0.00137139,-0.00042613,-0.00089162,0.000086
 55,0.00050017,0.00451299,-0.00123842,0.00039741,0.00501089,-0.00003928
 ,-0.00314066,0.00028081,-0.00002900,0.00195143,0.27743362,-0.06751607,
 -0.04914803,-0.01668683,-0.00122027,-0.03788467,0.00533353,0.00129267,
 -0.00448244,-0.00346464,-0.00080132,-0.00298260,0.00408513,-0.00332583
 ,0.00736075,-0.00027983,0.00186917,-0.00010489,-0.00211323,-0.00059712
 ,0.00007185,0.00027371,0.06504773,0.43603158,-0.05109942,-0.01128332,-
 0.02842864,-0.00028756,0.00450592,0.01023135,0.00006425,-0.00197039,-0
 .00060235,0.00010702,0.00297974,-0.00188570,-0.00150917,-0.00062201,0.
 00807288,0.00169934,-0.00095099,-0.00228455,0.00175775,0.00094720,0.00
 035738,0.06356052,-0.02707790,0.05440942,-0.01477769,-0.02653681,-0.00
 197961,-0.01368366,0.00361541,0.00242301,0.00139110,-0.00464876,0.0006
 8767,0.00133815,-0.00083729,-0.00085791,-0.00166046,0.00151632,-0.0009
 1551,0.00009309,-0.00018461,-0.00043762,-0.00050523,-0.00014888,-0.000
 05916,-0.04609773,-0.01073206,-0.00436873,0.06917274,-0.00980796,-0.00
 274661,-0.00212870,-0.00465024,0.00068083,-0.00431892,-0.00021171,0.00
 452912,0.00406947,0.00212627,0.00186586,-0.00357733,0.00641111,0.00122
 490,0.00037739,-0.00346719,0.00052679,0.00284938,-0.00003902,0.0001104
 1,-0.00081903,-0.02598389,-0.31671379,0.02700363,0.03171637,0.31030928
 ,-0.00430614,-0.00754823,0.00189532,0.00333179,-0.00183405,-0.02278294
 ,-0.00113270,0.00629456,0.00137950,0.00015237,-0.00802872,0.00400664,-
 0.00171329,0.00041794,0.00070081,0.00030726,-0.00002290,-0.00053771,0.
 00006897,-0.00015551,0.00013855,-0.00254828,0.03285465,-0.02893146,0.0
 0552032,-0.02337299,0.04218942,-0.00957604,-0.00627590,-0.00216737,-0.
 00230068,-0.00581293,0.00016055,0.00065336,-0.00061185,-0.00000479,0.0
 0048870,-0.00042420,0.00033077,0.00563476,0.00237616,-0.00010352,-0.00
 361255,0.00022605,0.00292540,-0.00015471,-0.00028415,-0.00101285,-0.00
 037286,-0.01718756,0.00537896,0.01373095,0.00542341,0.00256796,0.13865
 041,-0.00092686,0.00955083,-0.00082990,0.00004801,0.00180235,-0.000194
 92,-0.00003176,-0.00016981,0.00021043,0.00006038,-0.00023765,-0.000118
 38,-0.00433987,-0.00233522,-0.00001093,0.00255659,-0.00020539,-0.00225
 191,-0.00001777,0.00018483,0.00073748,-0.02086577,-0.01831490,-0.00459
 086,0.00166673,-0.00169130,0.00019648,-0.05898960,0.10192272,-0.003093
 82,-0.00238057,-0.00088203,-0.00049241,-0.00172862,-0.00035578,0.00000
 982,0.00017613,0.00009219,0.00021202,-0.00033718,0.00033682,0.00175048
 ,0.00077680,0.00048996,-0.00130290,0.00000298,0.00104966,0.00000854,0.
 00003064,-0.00024837,0.00777210,-0.00532956,-0.01534976,0.00277292,0.0
 0213022,0.00159579,0.02773266,-0.02161259,0.10016738,0.00662832,0.0033
 3766,0.00351152,-0.00000840,-0.00092263,0.00005126,0.00002115,0.000106
 40,-0.00003595,-0.00003328,0.00011551,0.00005779,-0.04939166,0.0037860
 7,0.04286125,-0.00088651,0.00258354,-0.01062759,-0.00736587,0.00014499
 ,0.00205938,-0.00210914,-0.00118022,-0.00082764,-0.00014059,0.00185544
 ,-0.00028938,0.00189811,-0.00134647,0.00061914,0.47548356,0.00046378,-
 0.00117296,-0.00103165,-0.00025312,0.00023278,0.00002041,0.00007468,-0
 .00003718,-0.00001061,0.00017281,-0.00000148,-0.00001791,0.00467631,0.
 01459028,-0.00468206,-0.00229993,-0.04418308,0.01048711,0.00093584,-0.
 00067125,-0.00095329,0.00002434,0.00032301,0.00023466,0.00012507,-0.00
 038030,-0.00000499,-0.00000985,-0.00005021,0.00001041,-0.05655138,0.64
 712513,-0.00496839,-0.00294053,-0.00571797,-0.00004219,0.00071668,0.00
 013198,-0.00005000,-0.00009126,-0.00004060,0.00011360,-0.00002229,-0.0
 0015271,0.04778304,-0.00376204,-0.01794209,-0.02449445,0.00677432,-0.0
 1534823,0.00135866,0.00007464,0.00117882,0.00161049,0.00101516,0.00115
 183,0.00023373,-0.00150711,0.00016096,-0.00153674,0.00117973,-0.000609
 48,-0.04448459,-0.17395089,0.12443384,-0.00075373,0.00039630,0.0001439
 9,0.00012181,0.00006938,-0.00002390,-0.00003450,-0.00000776,0.00001290
 ,-0.00007075,-0.00002733,0.00000047,-0.00101466,-0.00162176,0.00338648
 ,-0.00153042,0.00789389,-0.00902126,-0.00096909,0.00059027,0.00068692,
 0.00031663,-0.00000282,0.00001162,-0.00005106,-0.00015343,0.00003670,-
 0.00029073,0.00020084,-0.00009076,-0.27924147,0.23680010,-0.04727430,0
 .27114989,0.00056011,0.00085906,0.00042529,0.00017787,-0.00022125,0.00
 000099,-0.00005875,0.00003405,0.00000359,-0.00011809,0.00002022,0.0000
 0459,-0.00484934,-0.00055468,0.00293578,0.00672376,0.00245544,-0.00453
 373,0.00014886,0.00036092,0.00011354,-0.00019615,-0.00033212,-0.000118
 30,-0.00008193,0.00036896,-0.00003054,0.00013073,-0.00005907,0.0000432
 0,0.17952572,-0.24761280,0.06322714,-0.22022117,0.27321366,0.00043480,
 0.00006561,0.00025797,-0.00000683,-0.00003001,-0.00008929,0.00002820,0
 .00000957,0.00003846,-0.00003310,-0.00001510,0.00005308,0.00413191,0.0
 0142623,-0.00516206,0.00086287,-0.00853920,0.00963889,0.00159080,-0.00
 050028,-0.00085497,-0.00006550,-0.00005533,-0.00009828,-0.00002341,0.0
 0007705,0.00004803,0.00007430,-0.00004910,0.00005615,-0.04117091,0.069
 77879,-0.03716901,0.04672331,-0.07228620,0.02855312,-0.00018785,-0.000
 45705,0.00050065,-0.00000308,0.00011308,-0.00002965,0.00000393,-0.0000
 1328,0.00001255,0.00000049,-0.00002384,0.00000867,-0.00344185,0.002981
 86,0.00272683,0.00310870,-0.01384934,-0.00273579,-0.00032692,0.0000031
 1,0.00021287,0.00013248,0.00014895,-0.00005495,0.00000591,-0.00021192,
 0.00002730,-0.00015565,0.00004996,-0.00002317,-0.14408032,-0.18415217,
 0.07102883,0.01226358,0.03830606,-0.01249929,0.13265400,-0.00068463,0.
 00005762,-0.00030647,0.00008099,0.00003437,-0.00000787,-0.00003171,0.0
 0000056,0.00000579,-0.00004986,-0.00000794,-0.00000210,0.00595038,-0.0
 0233161,-0.00298799,-0.00657560,0.00551824,0.00256344,-0.00004366,0.00
 048797,-0.00004658,0.00032046,0.00001869,0.00009868,-0.00001584,-0.000
 11080,0.00003648,-0.00027967,0.00024151,-0.00009552,-0.13210902,-0.368
 14565,0.10987383,-0.02382634,-0.02858537,0.01008397,0.15713642,0.39291
 666,0.00071269,-0.00003388,0.00062264,-0.00003182,-0.00006817,-0.00005
 845,0.00002706,0.00001172,0.00002266,-0.00000158,-0.00000819,0.0000447
 3,0.00085199,-0.00249535,-0.00180566,0.00307175,0.01085514,0.00084511,
 0.00083692,0.00059411,-0.00030362,-0.00026582,-0.00003154,-0.00020491,
 -0.00001399,0.00017728,0.00001507,0.00024076,-0.00019869,0.00012815,0.
 04853483,0.10013719,-0.05025242,0.00536072,0.01022541,0.00472177,-0.05
 919470,-0.11926166,0.04624316,0.00649728,0.00510824,0.00190714,0.00149
 563,0.00386453,-0.00028199,-0.00047277,0.00039026,0.00014623,-0.000286
 31,0.00016342,-0.00017044,-0.00404550,-0.00158248,-0.00001187,0.002705
 68,-0.00023420,-0.00209609,0.00012163,0.00014554,0.00079068,-0.0380527
 0,0.03431231,-0.01734500,-0.00877533,-0.00481440,-0.00159953,-0.133916
 34,0.09116978,-0.01218368,-0.00146966,0.00005125,0.00105412,0.00023615
 ,-0.00011924,-0.00002765,0.00018512,0.00018413,-0.00012942,0.43468509,
 -0.00248334,-0.00620248,-0.00021676,0.00032512,-0.00186798,0.00034027,
 -0.00018188,0.00013795,-0.00028529,-0.00030374,0.00021922,0.00007449,0
 .00268506,0.00147563,0.00000008,-0.00161201,0.00006046,0.00139359,-0.0
 0001700,-0.00018542,-0.00046812,0.03349192,-0.00976981,0.01110806,0.00
 303655,0.00179194,0.00052470,0.06715995,-0.10171058,0.01467761,0.00082
 839,0.00008206,-0.00072918,-0.00012846,0.00000990,0.00002443,-0.000011
 98,-0.00018306,0.00012726,-0.13123989,0.17659713,0.00086689,0.00148261
 ,-0.00004458,0.00023973,0.00053773,0.00031474,0.00005613,-0.00006610,-
 0.00011929,-0.00008774,0.00021486,-0.00023703,-0.00053963,-0.00028907,
 -0.00008139,0.00046849,0.00000421,-0.00044029,0.00001123,-0.00003682,0
 .00002783,-0.01337887,0.00859108,0.00648102,-0.00208779,-0.00064604,-0
 .00027588,-0.03327899,0.03986649,-0.09287646,-0.00018114,-0.00001070,0
 .00030739,0.00001223,-0.00001146,-0.00005111,-0.00003774,0.00003723,-0
 .00009820,0.05216365,0.00195741,0.66691351,-0.00349417,-0.00104818,-0.
 00127773,-0.00017316,-0.00167183,0.00043535,0.00017437,0.00001901,-0.0
 0021054,0.00000409,0.00021249,-0.00008272,0.00216710,0.00063089,0.0000
 9994,-0.00147233,0.00013462,0.00106116,-0.00007876,-0.00004985,-0.0004
 4263,0.00782291,-0.00468784,0.00274646,0.00081389,0.00214505,-0.000239
 57,-0.02000084,0.00590564,0.00133645,0.00084359,-0.00004340,-0.0004930
 1,-0.00015033,0.00007448,-0.00001114,-0.00015055,-0.00008864,0.0000312
 0,-0.12246295,0.00998600,0.04474686,0.11357615,0.00058489,0.00051339,0
 .00040765,-0.00071301,0.00021605,-0.00012409,0.00028873,-0.00025797,0.
 00015521,0.00025943,-0.00018268,-0.00000619,-0.00035480,-0.00017837,-0
 .00008120,0.00021544,0.00001592,-0.00016155,-0.00001894,0.00005707,0.0
 0007989,-0.00002199,-0.00166521,0.00102497,0.00090843,-0.00005417,-0.0
 0004306,0.01204889,0.00363534,-0.01158370,-0.00012246,-0.00003654,0.00
 006700,0.00002740,0.00001340,0.00000856,0.00000719,0.00004088,-0.00000
 441,-0.00731304,-0.04237740,0.01880354,-0.00450875,0.06938015,0.001765
 79,0.00127317,0.00120452,0.00024098,0.00116635,-0.00055885,-0.00018052
 ,0.00019303,0.00026328,0.00003886,-0.00017788,0.00015137,-0.00142883,-
 0.00058428,-0.00015351,0.00083888,-0.00007564,-0.00059024,-0.00000145,
 0.00007037,0.00033767,-0.00807794,0.00585369,-0.00548297,-0.00129187,-
 0.00109338,0.00039966,0.00589903,-0.01282027,0.02232103,-0.00050424,0.
 00001368,0.00024190,0.00009645,-0.00003578,0.00002741,0.00009671,0.000
 05896,0.00000938,0.01516101,0.00765816,-0.10145420,-0.01804424,0.00082
 660,0.10654260,-0.00064690,0.00034233,-0.00065172,-0.00012298,-0.00016
 856,0.00011010,0.00008495,-0.00003194,-0.00000399,0.00007630,0.0000778
 5,-0.00005961,0.00022235,-0.00003352,0.00001163,-0.00019526,0.00003557
 ,0.00009099,-0.00001845,-0.00000661,-0.00008247,-0.00281695,0.00183647
 ,0.00195197,-0.00020444,0.00057442,-0.00021135,0.00432961,-0.00889518,
 -0.03102419,0.00014380,-0.00002290,-0.00001189,-0.00003181,0.00001922,
 -0.00001454,-0.00005457,-0.00000504,-0.00002221,-0.08607214,0.01150914
 ,-0.09324433,0.01941636,0.00170138,0.02623323,0.07364721,0.00051173,0.
 00052864,-0.00024801,-0.00063514,0.00009325,-0.00034245,0.00018429,-0.
 00012872,0.00017580,0.00031030,-0.00028317,0.00011657,-0.00030888,-0.0
 0014601,0.00008555,0.00016389,0.00002331,-0.00017950,0.00001556,0.0000
 4861,0.00003808,0.00114614,-0.00246646,-0.00123634,0.00073444,0.000162
 01,0.00063766,0.00355161,0.00740134,0.02463930,-0.00007811,-0.00005459
 ,0.00009350,0.00001514,0.00002402,0.00000031,-0.00002245,0.00004769,-0
 .00002755,0.00473505,-0.02990875,-0.06676114,-0.00339779,0.00376098,0.
 00147420,-0.00717626,0.02094882,-0.00068848,-0.00041210,0.00017278,0.0
 0017414,-0.00034681,-0.00006640,-0.00009351,0.00010257,-0.00000699,-0.
 00007197,0.00000941,0.00010589,0.00062184,0.00020175,-0.00007381,-0.00
 042351,0.00003642,0.00037830,-0.00003551,-0.00000757,-0.00006660,0.002
 72232,-0.00057081,0.00062534,-0.00016278,0.00018657,0.00010480,-0.0031
 1103,-0.00554385,-0.00915934,0.00020065,-0.00001138,-0.00024114,-0.000
 02150,0.00001813,0.00003287,-0.00000073,-0.00002442,0.00006208,-0.0843
 4030,-0.03074629,-0.45911832,-0.01027094,-0.00525231,-0.01739147,0.094
 44790,0.04175813,0.48333453,0.00188825,0.00053923,0.00050102,0.0000339
 8,0.00090837,-0.00012665,-0.00003784,-0.00009509,0.00006432,0.00000779
 ,-0.00010285,0.00000618,-0.00116636,-0.00030751,0.00000241,0.00083014,
 -0.00007606,-0.00061826,0.00006653,0.00001783,0.00021111,-0.00393341,0
 .00282792,-0.00148580,-0.00050865,-0.00109601,-0.00008637,0.00547073,-
 0.00621900,0.00546467,-0.00045998,0.00003079,0.00030689,0.00007982,-0.
 00004309,-0.00000704,0.00007741,0.00004562,-0.00003195,-0.04531955,0.0
 0793329,0.03810542,-0.00137828,-0.00878233,-0.00991532,-0.00631592,0.0
 0046263,0.00035946,0.49550334,-0.00035387,-0.00046164,-0.00011599,0.00
 056600,-0.00002878,-0.00005680,-0.00032648,0.00024497,-0.00004160,-0.0
 0020917,0.00009303,0.00005711,0.00021159,0.00014149,0.00002646,-0.0001
 2693,-0.00002183,0.00011104,0.00000976,-0.00005905,-0.00003901,0.00038
 906,0.00077376,-0.00031519,-0.00046864,-0.00033542,0.00023714,-0.00104
 244,-0.00085355,0.00090508,0.00006674,0.00003730,-0.00005350,-0.000016
 25,-0.00001917,-0.00000010,0.00000513,-0.00003398,0.00000979,0.0058089
 0,0.01463128,-0.00268181,-0.00414158,-0.03977581,-0.00735271,-0.000120
 79,-0.00095924,0.00082622,0.08085398,0.63269412,-0.00097834,-0.0006576
 1,-0.00086251,-0.00003778,-0.00062497,0.00046022,0.00008574,-0.0001377
 3,-0.00027409,-0.00007238,0.00012897,-0.00013460,0.00071114,0.00030326
 ,0.00016047,-0.00038474,0.00004210,0.00024698,0.00003253,-0.00003588,-
 0.00021965,0.00400164,-0.00280352,0.00269252,0.00062575,0.00065123,-0.
 00035648,-0.00650824,0.00696050,-0.00761987,0.00024964,-0.00000823,-0.
 00006637,-0.00005089,0.00001820,-0.00003541,-0.00005959,-0.00002468,-0
 .00003158,0.04245612,-0.00593010,-0.01222697,-0.02127156,-0.00187176,-
 0.01581516,-0.00002269,0.00031687,0.00224745,-0.02365273,0.17077032,0.
 11100341,-0.00029127,-0.00014298,-0.00003512,0.00024088,-0.00012582,-0
 .00001046,-0.00012546,0.00013030,-0.00002394,-0.00008071,0.00006136,0.
 00001981,0.00020956,0.00004929,-0.00000907,-0.00016064,0.00001061,0.00
 012356,-0.00001580,-0.00000507,-0.00002951,0.00039411,0.00013673,-0.00
 007824,-0.00018937,-0.00000492,0.00008785,-0.00070267,-0.00029193,0.00
 015174,0.00008818,-0.00000061,-0.00006358,-0.00001718,0.00000481,0.000
 00361,-0.00001329,-0.00001081,0.00000922,-0.00033092,0.00163747,0.0029
 4374,-0.00197631,-0.00665227,-0.00778260,-0.00118834,-0.00037071,0.000
 61267,-0.34244561,-0.22900851,-0.04847257,0.33779170,-0.00003853,0.000
 15492,-0.00002514,-0.00037788,-0.00013193,0.00002606,0.00023076,-0.000
 10874,0.00003890,0.00015419,-0.00004380,-0.00003726,0.00002541,-0.0000
 3126,-0.00000406,-0.00002417,0.00002141,0.00000990,-0.00000813,0.00002
 667,-0.00000596,0.00028770,-0.00074554,0.00030009,0.00028102,0.0004071
 2,-0.00009004,-0.00061549,0.00109316,-0.00054087,0.00001435,-0.0000249
 5,-0.00000451,0.00000110,0.00001647,0.00000019,-0.00000995,0.00001309,
 -0.00000332,0.00448805,-0.00172377,-0.00333547,-0.00512495,0.00475651,
 0.00520234,0.00010146,0.00050576,-0.00007394,-0.17069838,-0.19288577,-
 0.05064258,0.21596912,0.21504672,-0.00000017,0.00002516,0.00013739,-0.
 00002168,0.00003590,-0.00018030,-0.00004183,0.00006010,0.00011643,0.00
 004584,-0.00004137,0.00007206,-0.00001804,-0.00001475,-0.00004367,-0.0
 0001426,-0.00000375,0.00002689,-0.00001341,-0.00000175,0.00003197,-0.0
 0024052,0.00013812,-0.00031799,-0.00002670,-0.00003618,0.00017237,0.00
 098754,-0.00035610,0.00015343,-0.00000345,0.00000128,-0.00003428,0.000
 00329,-0.00000077,0.00001481,0.00000851,-0.00000228,0.00001786,0.00349
 721,-0.00186584,-0.00485137,0.00113454,0.00740407,0.00848507,0.0017012
 8,0.00018863,-0.00068110,-0.04238519,-0.05568826,-0.03131495,0.0487459
 0,0.05870483,0.02296142,-0.00022744,0.00018637,0.00009396,-0.00004965,
 -0.00010150,-0.00002773,0.00002323,0.00002021,0.00002481,0.00002042,0.
 00000012,0.00001112,0.00014902,-0.00003933,-0.00005157,-0.00015364,0.0
 0002538,0.00011621,-0.00003756,0.00002798,-0.00000565,-0.00006044,-0.0
 0022084,-0.00022139,0.00004837,0.00018864,0.00002610,0.00022643,0.0002
 6629,0.00038040,0.00008016,-0.00002162,-0.00007022,-0.00001215,0.00001
 613,0.00000963,-0.00001756,0.00000282,0.00001434,-0.00472240,-0.002614
 60,0.00322185,0.00651921,0.01244581,-0.00314394,-0.00025284,0.00015856
 ,0.00008128,-0.10239240,0.14790348,0.05334893,0.00881313,-0.04465570,-
 0.01335885,0.09204609,0.00026878,0.00022191,0.00004249,-0.00013956,0.0
 0005366,0.00001037,0.00008392,-0.00006188,0.00000383,0.00006196,-0.000
 02723,-0.00001233,-0.00016175,-0.00009121,-0.00000605,0.00010171,0.000
 00909,-0.00008421,0.00000219,0.00003175,0.00002630,-0.00047090,0.00003
 080,-0.00003764,0.00005447,0.00005516,-0.00006860,0.00061684,-0.000204
 40,0.00021625,-0.00005452,-0.00001959,0.00003930,0.00001091,0.00000837
 ,0.00000062,0.00000022,0.00002115,-0.00000512,-0.00511823,-0.00107633,
 0.00234346,0.00565462,0.00213846,-0.00165060,0.00026294,0.00040252,-0.
 00014974,0.09380066,-0.41318172,-0.11645440,0.01861392,-0.02634610,-0.
 00854705,-0.11358819,0.43803558,0.00010870,0.00012964,0.00023368,-0.00
 006242,0.00006870,-0.00010956,0.00002486,0.00001294,0.00007975,0.00003
 965,-0.00003241,0.00003719,-0.00007349,-0.00005562,-0.00007278,0.00001
 063,-0.00000382,0.00001172,-0.00002464,0.00001587,0.00005624,-0.000619
 58,0.00026813,-0.00043510,-0.00003833,-0.00002255,0.00007755,0.0014256
 1,-0.00057362,0.00071050,-0.00002057,-0.00000183,-0.00003242,0.0000075
 2,0.00000091,0.00001757,0.00001268,0.00000119,0.00002224,0.00100982,0.
 00235552,-0.00216941,0.00075212,-0.00964922,0.00146252,0.00080188,-0.0
 0072959,-0.00025887,0.03328783,-0.10659819,-0.04785339,0.00380700,-0.0
 0951916,0.00523396,-0.04044927,0.12433312,0.04298860\\0.00658330,0.008
 48870,-0.00153849,-0.00690556,-0.00266523,-0.00141191,-0.00032593,0.00
 145916,0.01244744,0.00611061,-0.00111820,-0.01103660,0.01018945,-0.012
 44089,0.00113421,-0.00828513,0.00550062,-0.00377725,0.00183235,0.00683
 351,0.00756778,-0.01175955,-0.00702698,-0.00202266,-0.00369522,-0.0006
 4516,-0.00141208,0.00458440,0.00747819,0.00364220,0.01012367,0.0038738
 9,0.01194883,0.00034613,-0.01151016,-0.00324221,-0.00383182,0.00782949
 ,-0.00824393,-0.01079116,-0.02151227,0.00045068,0.01044520,0.00667240,
 0.00345766,0.00191472,0.00792822,-0.00743313,-0.00977807,0.00468144,-0
 .01083374,-0.00221216,-0.01140436,0.00282608,0.00545478,0.00757763,0.0
 0747710\\\@


 WE ARE PERHAPS NOT FAR REMOVED FROM THE TIME WHEN WE SHALL BE ABLE TO SUBMIT
 THE BULK OF CHEMICAL PHENOMENA TO CALCULATION.

            -- JOSEPH LOUIS GAY-LUSSAC
               MEMOIRES DE LA SOCIETE D'ARCUEIL, 2, 207 (1808)
 Job cpu time:       0 days  0 hours 48 minutes  6.6 seconds.
 Elapsed time:       0 days  0 hours  1 minutes 44.1 seconds.
 File lengths (MBytes):  RWF=   2793 Int=      0 D2E=      0 Chk=      3 Scr=      1
 Normal termination of Gaussian 16 at Wed May 11 21:53:01 2022.
