 Entering Gaussian System, Link 0=g16
 Initial command:
 /cm/shared/apps/gaussian/intel/EM64T/SSE4_2-enabled/binary//g16/l1.exe "/scratch/florez/25750/Gau-18597.inp" -scrdir="/scratch/florez/25750/"
 Entering Link 1 = /cm/shared/apps/gaussian/intel/EM64T/SSE4_2-enabled/binary//g16/l1.exe PID=     18600.
  
 Copyright (c) 1988,1990,1992,1993,1995,1998,2003,2009,2016,
            Gaussian, Inc.  All Rights Reserved.
  
 This is part of the Gaussian(R) 16 program.  It is based on
 the Gaussian(R) 09 system (copyright 2009, Gaussian, Inc.),
 the Gaussian(R) 03 system (copyright 2003, Gaussian, Inc.),
 the Gaussian(R) 98 system (copyright 1998, Gaussian, Inc.),
 the Gaussian(R) 94 system (copyright 1995, Gaussian, Inc.),
 the Gaussian 92(TM) system (copyright 1992, Gaussian, Inc.),
 the Gaussian 90(TM) system (copyright 1990, Gaussian, Inc.),
 the Gaussian 88(TM) system (copyright 1988, Gaussian, Inc.),
 the Gaussian 86(TM) system (copyright 1986, Carnegie Mellon
 University), and the Gaussian 82(TM) system (copyright 1983,
 Carnegie Mellon University). Gaussian is a federally registered
 trademark of Gaussian, Inc.
  
 This software contains proprietary and confidential information,
 including trade secrets, belonging to Gaussian, Inc.
  
 This software is provided under written license and may be
 used, copied, transmitted, or stored only in accord with that
 written license.
  
 The following legend is applicable only to US Government
 contracts under FAR:
  
                    RESTRICTED RIGHTS LEGEND
  
 Use, reproduction and disclosure by the US Government is
 subject to restrictions as set forth in subparagraphs (a)
 and (c) of the Commercial Computer Software - Restricted
 Rights clause in FAR 52.227-19.
  
 Gaussian, Inc.
 340 Quinnipiac St., Bldg. 40, Wallingford CT 06492
  
  
 ---------------------------------------------------------------
 Warning -- This program may not be used in any manner that
 competes with the business of Gaussian, Inc. or will provide
 assistance to any competitor of Gaussian, Inc.  The licensee
 of this program is prohibited from giving any competitor of
 Gaussian, Inc. access to this program.  By using this program,
 the user acknowledges that Gaussian, Inc. is engaged in the
 business of creating and licensing software in the field of
 computational chemistry and represents and warrants to the
 licensee that it is not a competitor of Gaussian, Inc. and that
 it will not use this program in any manner prohibited above.
 ---------------------------------------------------------------
  

 Cite this work as:
 Gaussian 16, Revision A.03,
 M. J. Frisch, G. W. Trucks, H. B. Schlegel, G. E. Scuseria, 
 M. A. Robb, J. R. Cheeseman, G. Scalmani, V. Barone, 
 G. A. Petersson, H. Nakatsuji, X. Li, M. Caricato, A. V. Marenich, 
 J. Bloino, B. G. Janesko, R. Gomperts, B. Mennucci, H. P. Hratchian, 
 J. V. Ortiz, A. F. Izmaylov, J. L. Sonnenberg, D. Williams-Young, 
 F. Ding, F. Lipparini, F. Egidi, J. Goings, B. Peng, A. Petrone, 
 T. Henderson, D. Ranasinghe, V. G. Zakrzewski, J. Gao, N. Rega, 
 G. Zheng, W. Liang, M. Hada, M. Ehara, K. Toyota, R. Fukuda, 
 J. Hasegawa, M. Ishida, T. Nakajima, Y. Honda, O. Kitao, H. Nakai, 
 T. Vreven, K. Throssell, J. A. Montgomery, Jr., J. E. Peralta, 
 F. Ogliaro, M. J. Bearpark, J. J. Heyd, E. N. Brothers, K. N. Kudin, 
 V. N. Staroverov, T. A. Keith, R. Kobayashi, J. Normand, 
 K. Raghavachari, A. P. Rendell, J. C. Burant, S. S. Iyengar, 
 J. Tomasi, M. Cossi, J. M. Millam, M. Klene, C. Adamo, R. Cammi, 
 J. W. Ochterski, R. L. Martin, K. Morokuma, O. Farkas, 
 J. B. Foresman, and D. J. Fox, Gaussian, Inc., Wallingford CT, 2016.
 
 ******************************************
 Gaussian 16:  ES64L-G16RevA.03 25-Dec-2016
                11-May-2022 
 ******************************************
 %chk=w6s7.chk
 %nproc=28
 Will use up to   28 processors via shared memory.
 %mem=500gb
 ------------------------
 #p MP2(full) SDDAll freq
 ------------------------
 1/10=4,30=1,38=1/1,3;
 2/12=2,17=6,18=5,40=1/2;
 3/5=17,6=6,11=9,25=1,30=1,71=2,140=1/1,2,3;
 4//1;
 5/5=2,38=5,98=1/2;
 8/6=3,8=1,10=90,19=11/1;
 9/15=3,16=-3/6;
 11/6=1,8=1,15=11,17=11,24=-1,27=1,28=-2,29=300,32=6,42=3/1,2,10;
 10/6=2,21=1/2;
 8/6=4,8=1,10=90,19=11/11,4;
 10/5=1,20=4/2;
 11/12=2,14=11,16=1,28=-2,42=3/2,10,12;
 6/7=2,8=2,9=2,10=2/1;
 7/8=1,10=1,12=2,25=1,44=2/1,2,3,16;
 1/10=4,30=1/3;
 99//99;
 Leave Link    1 at Wed May 11 21:47:30 2022, MaxMem= 67108864000 cpu:               0.9 elap:               0.0
 (Enter /cm/shared/apps/gaussian/intel/EM64T/SSE4_2-enabled/binary//g16/l101.exe)
 ----------------------------------------------------------------------
 file 'w6s7.log' Now we use Def2-QZVPPD, but it was opt at: ---'ZORA-SR
 +SO PBE QZ4P'---
 ----------------------------------------------------------------------
 Symbolic Z-matrix:
 Charge =  2 Multiplicity = 1
 Hg(Fragment=1)        0.34402  -0.34826  -0.03244 
 O(Fragment=2)        -3.70845   0.55      0.58859 
 H(Fragment=2)        -4.54517   0.09872   0.02834 
 H(Fragment=2)        -3.97116   0.8197    1.48731 
 O(Fragment=2)        -5.52088  -0.41753  -0.75708 
 H(Fragment=2)        -6.20536  -0.99327  -0.37228 
 H(Fragment=2)        -5.96946   0.18671  -1.37548 
 O(Fragment=2)        -1.47425  -0.68263   0.7336 
 H(Fragment=2)        -2.81672   0.02011   0.61488 
 H(Fragment=2)        -1.55555  -1.63544   0.921 
 O(Fragment=2)         4.18122   0.33165   0.45841 
 H(Fragment=2)         4.83512  -0.37139   0.6219 
 H(Fragment=2)         4.68651   1.13762   0.24938 
 O(Fragment=2)         0.86215   2.02078   0.8687 
 H(Fragment=2)         0.78149   2.29233   1.79857 
 H(Fragment=2)         0.8243    2.846     0.3563 
 O(Fragment=2)         2.18343  -0.10023  -0.93545 
 H(Fragment=2)         3.07392   0.06299  -0.33351 
 H(Fragment=2)         2.37438  -0.75144  -1.63533 
 
 ITRead=  0  0  0  0  0  0  0  0  0  0  0  0  0  0  0  0  0  0  0
 MicOpt= -1 -1 -1 -1 -1 -1 -1 -1 -1 -1 -1 -1 -1 -1 -1 -1 -1 -1 -1
 NAtoms=     19 NQM=       19 NQMF=       0 NMMI=      0 NMMIF=      0
                NMic=       0 NMicF=      0.
                    Isotopes and Nuclear Properties:
 (Nuclear quadrupole moments (NQMom) in fm**2, nuclear magnetic moments (NMagM)
  in nuclear magnetons)

  Atom         1           2           3           4           5           6           7           8           9          10
 IAtWgt=         202          16           1           1          16           1           1          16           1           1
 AtmWgt= 201.9706000  15.9949146   1.0078250   1.0078250  15.9949146   1.0078250   1.0078250  15.9949146   1.0078250   1.0078250
 NucSpn=           0           0           1           1           0           1           1           0           1           1
 AtZEff=  -0.0000000  -0.0000000  -0.0000000  -0.0000000  -0.0000000  -0.0000000  -0.0000000  -0.0000000  -0.0000000  -0.0000000
 NQMom=    0.0000000   0.0000000   0.0000000   0.0000000   0.0000000   0.0000000   0.0000000   0.0000000   0.0000000   0.0000000
 NMagM=    0.0000000   0.0000000   2.7928460   2.7928460   0.0000000   2.7928460   2.7928460   0.0000000   2.7928460   2.7928460
 AtZNuc=  80.0000000   8.0000000   1.0000000   1.0000000   8.0000000   1.0000000   1.0000000   8.0000000   1.0000000   1.0000000

  Atom        11          12          13          14          15          16          17          18          19
 IAtWgt=          16           1           1          16           1           1          16           1           1
 AtmWgt=  15.9949146   1.0078250   1.0078250  15.9949146   1.0078250   1.0078250  15.9949146   1.0078250   1.0078250
 NucSpn=           0           1           1           0           1           1           0           1           1
 AtZEff=  -0.0000000  -0.0000000  -0.0000000  -0.0000000  -0.0000000  -0.0000000  -0.0000000  -0.0000000  -0.0000000
 NQMom=    0.0000000   0.0000000   0.0000000   0.0000000   0.0000000   0.0000000   0.0000000   0.0000000   0.0000000
 NMagM=    0.0000000   2.7928460   2.7928460   0.0000000   2.7928460   2.7928460   0.0000000   2.7928460   2.7928460
 AtZNuc=   8.0000000   1.0000000   1.0000000   8.0000000   1.0000000   1.0000000   8.0000000   1.0000000   1.0000000
 Leave Link  101 at Wed May 11 21:47:31 2022, MaxMem= 67108864000 cpu:               2.7 elap:               0.1
 (Enter /cm/shared/apps/gaussian/intel/EM64T/SSE4_2-enabled/binary//g16/l103.exe)

 GradGradGradGradGradGradGradGradGradGradGradGradGradGradGradGradGradGrad
 Berny optimization.
 Initialization pass.
 Trust Radius=3.00D-01 FncErr=1.00D-07 GrdErr=1.00D-07 EigMax=2.50D+02 EigMin=1.00D-04
 Number of steps in this run=      2 maximum allowed number of steps=      2.
 GradGradGradGradGradGradGradGradGradGradGradGradGradGradGradGradGradGrad

 Leave Link  103 at Wed May 11 21:47:31 2022, MaxMem= 67108864000 cpu:               0.7 elap:               0.0
 (Enter /cm/shared/apps/gaussian/intel/EM64T/SSE4_2-enabled/binary//g16/l202.exe)
                          Input orientation:                          
 ---------------------------------------------------------------------
 Center     Atomic      Atomic             Coordinates (Angstroms)
 Number     Number       Type             X           Y           Z
 ---------------------------------------------------------------------
      1         80           0        0.344023   -0.348261   -0.032437
      2          8           0       -3.708451    0.549998    0.588594
      3          1           0       -4.545171    0.098717    0.028338
      4          1           0       -3.971160    0.819700    1.487309
      5          8           0       -5.520884   -0.417533   -0.757083
      6          1           0       -6.205364   -0.993270   -0.372275
      7          1           0       -5.969455    0.186710   -1.375482
      8          8           0       -1.474249   -0.682628    0.733600
      9          1           0       -2.816715    0.020106    0.614876
     10          1           0       -1.555550   -1.635439    0.920995
     11          8           0        4.181218    0.331651    0.458409
     12          1           0        4.835118   -0.371390    0.621896
     13          1           0        4.686509    1.137618    0.249380
     14          8           0        0.862147    2.020777    0.868703
     15          1           0        0.781485    2.292331    1.798571
     16          1           0        0.824304    2.846002    0.356301
     17          8           0        2.183425   -0.100234   -0.935446
     18          1           0        3.073920    0.062988   -0.333512
     19          1           0        2.374382   -0.751442   -1.635327
 ---------------------------------------------------------------------
                    Distance matrix (angstroms):
                    1          2          3          4          5
     1  Hg   0.000000
     2  O    4.197034   0.000000
     3  H    4.909959   1.103468   0.000000
     4  H    4.721712   0.974394   1.725660   0.000000
     5  O    5.909911   2.455988   1.354775   2.994943   0.000000
     6  H    6.589840   3.088611   2.027108   3.425869   0.973685
     7  H    6.476880   3.016904   2.001759   3.548159   0.974034
     8  O    2.001181   2.555788   3.246299   3.009922   4.320609
     9  H    3.247302   1.037627   1.826956   1.653249   3.063712
    10  H    2.484801   3.085710   3.569589   3.490500   4.474719
    11  O    3.927757   7.893763   8.740085   8.231530   9.806604
    12  H    4.538570   8.593174   9.410799   8.928503  10.447511
    13  H    4.598309   8.422334   9.292583   8.751501  10.374118
    14  O    2.587054   4.809576   5.799967   5.018577   7.023647
    15  H    3.242945   4.965813   6.026519   4.985294   7.320832
    16  H    3.253476   5.086400   6.040397   5.327434   7.221613
    17  O    2.064060   6.120433   6.800181   6.677944   7.712903
    18  H    2.777069   6.862071   7.627762   7.315815   8.618641
    19  H    2.618047   6.606090   7.167340   7.244670   7.950977
                    6          7          8          9         10
     6  H    0.000000
     7  H    1.566662   0.000000
     8  O    4.868563   5.040918   0.000000
     9  H    3.672103   3.732164   1.519916   0.000000
    10  H    4.868850   5.298735   0.974462   2.103586   0.000000
    11  O   10.503644  10.316023   5.752286   7.006612   6.082264
    12  H   11.102583  11.001809   6.318026   7.661845   6.521343
    13  H   11.115756  10.820997   6.442259   7.594787   6.863251
    14  O    7.782944   7.420981   3.575667   4.195371   4.383595
    15  H    8.020212   7.751351   3.882381   4.417147   4.653950
    16  H    8.042827   7.498404   4.228112   4.616229   5.105477
    17  O    8.454966   8.169787   4.062447   5.236352   4.447827
    18  H    9.339288   9.104045   4.730805   5.966646   5.088264
    19  H    8.675588   8.400432   4.519791   5.710183   4.770807
                   11         12         13         14         15
    11  O    0.000000
    12  H    0.973951   0.000000
    13  H    0.973958   1.561396   0.000000
    14  O    3.746695   4.644123   3.973572   0.000000
    15  H    4.147106   4.991184   4.356899   0.972061   0.000000
    16  H    4.195385   5.148668   4.224528   0.972103   1.545486
    17  O    2.473971   3.087121   3.033401   3.082112   3.894182
    18  H    1.387598   2.050197   2.023620   3.189075   3.843307
    19  H    2.970097   3.360761   3.530807   4.030164   4.857317
                   16         17         18         19
    16  H    0.000000
    17  O    3.492295   0.000000
    18  H    3.644418   1.087174   0.000000
    19  H    4.394420   0.974869   1.687416   0.000000
 Stoichiometry    H12HgO6(2+)
 Framework group  C1[X(H12HgO6)]
 Deg. of freedom    51
 Full point group                 C1      NOp   1
 Largest Abelian subgroup         C1      NOp   1
 Largest concise Abelian subgroup C1      NOp   1
                         Standard orientation:                         
 ---------------------------------------------------------------------
 Center     Atomic      Atomic             Coordinates (Angstroms)
 Number     Number       Type             X           Y           Z
 ---------------------------------------------------------------------
      1         80           0       -0.390777   -0.301781   -0.059202
      2          8           0        3.597860    1.001255   -0.148471
      3          1           0        4.467827    0.381306    0.128045
      4          1           0        3.827381    1.685088   -0.803556
      5          8           0        5.484674   -0.396677    0.570968
      6          1           0        6.188333   -0.677246   -0.040759
      7          1           0        5.916056   -0.143024    1.406619
      8          8           0        1.424815   -0.126294   -0.882340
      9          1           0        2.733095    0.502822   -0.432047
     10          1           0        1.549119   -0.864219   -1.506512
     11          8           0       -4.266653    0.323040   -0.179430
     12          1           0       -4.888326   -0.247680   -0.665620
     13          1           0       -4.806588    0.899360    0.390589
     14          8           0       -1.044946    2.176099    0.294377
     15          1           0       -0.997972    2.866799   -0.387993
     16          1           0       -1.036928    2.651982    1.141995
     17          8           0       -2.220228   -0.620010    0.842008
     18          1           0       -3.130531   -0.234602    0.389508
     19          1           0       -2.363516   -1.537419    1.138992
 ---------------------------------------------------------------------
 Rotational constants (GHZ):           2.7543071           0.3712070           0.3452646
 Leave Link  202 at Wed May 11 21:47:31 2022, MaxMem= 67108864000 cpu:               0.6 elap:               0.0
 (Enter /cm/shared/apps/gaussian/intel/EM64T/SSE4_2-enabled/binary//g16/l301.exe)
 Standard basis: SDDAll (6D, 10F)
 Ernie: Thresh=  0.10000D-02 Tol=  0.10000D-05 Strict=F.
 There are   129 symmetry adapted cartesian basis functions of A   symmetry.
 There are   129 symmetry adapted basis functions of A   symmetry.
   129 basis functions,   227 primitive gaussians,   129 cartesian basis functions
    33 alpha electrons       33 beta electrons
       nuclear repulsion energy       322.2513871074 Hartrees.
 IExCor=    0 DFT=F Ex=HF Corr=None ExCW=0 ScaHFX=  1.000000
 ScaDFX=  1.000000  1.000000  1.000000  1.000000 ScalE2=  1.000000  1.000000
 IRadAn=      5 IRanWt=     -1 IRanGd=            0 ICorTp=0 IEmpDi=  4
 NAtoms=   19 NActive=   19 NUniq=   19 SFac= 1.00D+00 NAtFMM=   60 NAOKFM=F Big=F
 Integral buffers will be    131072 words long.
 Raffenetti 1 integral format.
 Two-electron integral symmetry is turned on.
 Leave Link  301 at Wed May 11 21:47:31 2022, MaxMem= 67108864000 cpu:               1.4 elap:               0.1
 (Enter /cm/shared/apps/gaussian/intel/EM64T/SSE4_2-enabled/binary//g16/l302.exe)
 NPDir=0 NMtPBC=     1 NCelOv=     1 NCel=       1 NClECP=     1 NCelD=      1
         NCelK=      1 NCelE2=     1 NClLst=     1 CellRange=     0.0.
 One-electron integrals computed using PRISM.
 One-electron integral symmetry used in STVInt
   1 Symmetry operations used in ECPInt.
 ECPInt:  NShTT=    2346 NPrTT=    7709 LenC2=    2225 LenP2D=    5636.
 LDataN:  DoStor=T MaxTD1= 7 Len=  274
 NBasis=   129 RedAO= T EigKep=  3.83D-04  NBF=   129
 NBsUse=   129 1.00D-06 EigRej= -1.00D+00 NBFU=   129
 Leave Link  302 at Wed May 11 21:47:31 2022, MaxMem= 67108864000 cpu:               6.8 elap:               0.3
 (Enter /cm/shared/apps/gaussian/intel/EM64T/SSE4_2-enabled/binary//g16/l303.exe)
 DipDrv:  MaxL=1.
 Leave Link  303 at Wed May 11 21:47:31 2022, MaxMem= 67108864000 cpu:               2.2 elap:               0.1
 (Enter /cm/shared/apps/gaussian/intel/EM64T/SSE4_2-enabled/binary//g16/l401.exe)
 ExpMin= 2.00D-02 ExpMax= 4.71D+01 ExpMxC= 4.71D+01 IAcc=3 IRadAn=         5 AccDes= 0.00D+00
 Harris functional with IExCor=  205 and IRadAn=       5 diagonalized for initial guess.
 HarFok:  IExCor=  205 AccDes= 0.00D+00 IRadAn=         5 IDoV= 1 UseB2=F ITyADJ=14
 ICtDFT=  3500011 ScaDFX=  1.000000  1.000000  1.000000  1.000000
 Defaulting to unpruned grid for atomic number  80.
 FoFCou: FMM=F IPFlag=           0 FMFlag=      100000 FMFlg1=           0
         NFxFlg=           0 DoJE=T BraDBF=F KetDBF=T FulRan=T
         wScrn=  0.000000 ICntrl=       500 IOpCl=  0 I1Cent=   200000004 NGrid=           0
         NMat0=    1 NMatS0=      1 NMatT0=    0 NMatD0=    1 NMtDS0=    0 NMtDT0=    0
 Petite list used in FoFCou.
 Harris En= -257.154645598759    
 JPrj=0 DoOrth=F DoCkMO=F.
 Leave Link  401 at Wed May 11 21:47:31 2022, MaxMem= 67108864000 cpu:               8.4 elap:               0.3
 (Enter /cm/shared/apps/gaussian/intel/EM64T/SSE4_2-enabled/binary//g16/l502.exe)
 Integral symmetry usage will be decided dynamically.
 Closed shell SCF:
 Using DIIS extrapolation, IDIIS=  1040.
 NGot= 67108864000 LenX= 67108825412 LenY= 67108808330
 Requested convergence on RMS density matrix=1.00D-08 within 128 cycles.
 Requested convergence on MAX density matrix=1.00D-06.
 Requested convergence on             energy=1.00D-06.
 No special actions if energy rises.
 Fock matrices will be formed incrementally for  20 cycles.

 Cycle   1  Pass 0  IDiag  1:
 FoFJK:  IHMeth= 1 ICntrl=       0 DoSepK=F KAlg= 0 I1Cent=           0 FoldK=F
 IRaf= 910000000 NMat=       1 IRICut=       1 DoRegI=T DoRafI=F ISym2E= 0 IDoP0=0 IntGTp=1.
 FoFCou: FMM=F IPFlag=           0 FMFlag=      100000 FMFlg1=           0
         NFxFlg=           0 DoJE=F BraDBF=F KetDBF=F FulRan=T
         wScrn=  0.000000 ICntrl=         0 IOpCl=  0 I1Cent=           0 NGrid=           0
         NMat0=    1 NMatS0=      1 NMatT0=    0 NMatD0=    1 NMtDS0=    0 NMtDT0=    0
 Symmetry not used in FoFCou.
 E= -252.941004833793    
 DIIS: error= 4.33D-02 at cycle   1 NSaved=   1.
 NSaved= 1 IEnMin= 1 EnMin= -252.941004833793     IErMin= 1 ErrMin= 4.33D-02
 ErrMax= 4.33D-02  0.00D+00 EMaxC= 1.00D-01 BMatC= 6.26D-01 BMatP= 6.26D-01
 IDIUse=3 WtCom= 5.67D-01 WtEn= 4.33D-01
 Coeff-Com:  0.100D+01
 Coeff-En:   0.100D+01
 Coeff:      0.100D+01
 Gap=     0.669 Goal=   None    Shift=    0.000
 GapD=    0.669 DampG=2.000 DampE=0.250 DampFc=0.5000 IDamp=-1.
 Damping current iteration by 5.00D-01
 RMSDP=7.93D-03 MaxDP=2.22D-01              OVMax= 2.26D-01

 Cycle   2  Pass 0  IDiag  1:
 RMSU=  3.95D-03    CP:  1.01D+00
 E= -253.207023133868     Delta-E=       -0.266018300075 Rises=F Damp=T
 DIIS: error= 1.11D-02 at cycle   2 NSaved=   2.
 NSaved= 2 IEnMin= 2 EnMin= -253.207023133868     IErMin= 2 ErrMin= 1.11D-02
 ErrMax= 1.11D-02  0.00D+00 EMaxC= 1.00D-01 BMatC= 3.83D-02 BMatP= 6.26D-01
 IDIUse=3 WtCom= 8.89D-01 WtEn= 1.11D-01
 Coeff-Com: -0.230D+00 0.123D+01
 Coeff-En:   0.000D+00 0.100D+01
 Coeff:     -0.204D+00 0.120D+01
 Gap=     0.542 Goal=   None    Shift=    0.000
 RMSDP=2.48D-03 MaxDP=7.54D-02 DE=-2.66D-01 OVMax= 6.33D-02

 Cycle   3  Pass 0  IDiag  1:
 RMSU=  2.14D-03    CP:  1.00D+00  1.31D+00
 E= -253.434257781690     Delta-E=       -0.227234647822 Rises=F Damp=F
 DIIS: error= 2.92D-03 at cycle   3 NSaved=   3.
 NSaved= 3 IEnMin= 3 EnMin= -253.434257781690     IErMin= 3 ErrMin= 2.92D-03
 ErrMax= 2.92D-03  0.00D+00 EMaxC= 1.00D-01 BMatC= 3.31D-03 BMatP= 3.83D-02
 IDIUse=3 WtCom= 9.71D-01 WtEn= 2.92D-02
 Coeff-Com:  0.278D-01-0.740D-01 0.105D+01
 Coeff-En:   0.000D+00 0.000D+00 0.100D+01
 Coeff:      0.270D-01-0.718D-01 0.104D+01
 Gap=     0.533 Goal=   None    Shift=    0.000
 RMSDP=9.10D-04 MaxDP=3.14D-02 DE=-2.27D-01 OVMax= 1.97D-02

 Cycle   4  Pass 0  IDiag  1:
 RMSU=  5.28D-04    CP:  9.95D-01  1.25D+00  1.31D+00
 E= -253.438056595189     Delta-E=       -0.003798813499 Rises=F Damp=F
 DIIS: error= 2.03D-03 at cycle   4 NSaved=   4.
 NSaved= 4 IEnMin= 4 EnMin= -253.438056595189     IErMin= 4 ErrMin= 2.03D-03
 ErrMax= 2.03D-03  0.00D+00 EMaxC= 1.00D-01 BMatC= 6.52D-04 BMatP= 3.31D-03
 IDIUse=3 WtCom= 9.80D-01 WtEn= 2.03D-02
 Coeff-Com:  0.344D-01-0.154D+00 0.328D+00 0.792D+00
 Coeff-En:   0.000D+00 0.000D+00 0.000D+00 0.100D+01
 Coeff:      0.337D-01-0.151D+00 0.321D+00 0.796D+00
 Gap=     0.534 Goal=   None    Shift=    0.000
 RMSDP=3.65D-04 MaxDP=1.02D-02 DE=-3.80D-03 OVMax= 1.60D-02

 Cycle   5  Pass 0  IDiag  1:
 RMSU=  2.10D-04    CP:  9.93D-01  1.26D+00  1.44D+00  1.09D+00
 E= -253.439068116036     Delta-E=       -0.001011520848 Rises=F Damp=F
 DIIS: error= 5.39D-04 at cycle   5 NSaved=   5.
 NSaved= 5 IEnMin= 5 EnMin= -253.439068116036     IErMin= 5 ErrMin= 5.39D-04
 ErrMax= 5.39D-04  0.00D+00 EMaxC= 1.00D-01 BMatC= 5.05D-05 BMatP= 6.52D-04
 IDIUse=3 WtCom= 9.95D-01 WtEn= 5.39D-03
 Coeff-Com: -0.145D-01 0.523D-01-0.142D+00-0.148D+00 0.125D+01
 Coeff-En:   0.000D+00 0.000D+00 0.000D+00 0.000D+00 0.100D+01
 Coeff:     -0.144D-01 0.520D-01-0.141D+00-0.147D+00 0.125D+01
 Gap=     0.532 Goal=   None    Shift=    0.000
 RMSDP=1.87D-04 MaxDP=4.71D-03 DE=-1.01D-03 OVMax= 6.93D-03

 Cycle   6  Pass 0  IDiag  1:
 RMSU=  6.33D-05    CP:  9.92D-01  1.27D+00  1.50D+00  1.25D+00  1.45D+00
 E= -253.439238021153     Delta-E=       -0.000169905117 Rises=F Damp=F
 DIIS: error= 2.38D-04 at cycle   6 NSaved=   6.
 NSaved= 6 IEnMin= 6 EnMin= -253.439238021153     IErMin= 6 ErrMin= 2.38D-04
 ErrMax= 2.38D-04  0.00D+00 EMaxC= 1.00D-01 BMatC= 1.31D-05 BMatP= 5.05D-05
 IDIUse=3 WtCom= 9.98D-01 WtEn= 2.38D-03
 Coeff-Com: -0.860D-02 0.353D-01-0.108D+00-0.159D+00 0.397D+00 0.844D+00
 Coeff-En:   0.000D+00 0.000D+00 0.000D+00 0.000D+00 0.000D+00 0.100D+01
 Coeff:     -0.858D-02 0.352D-01-0.108D+00-0.158D+00 0.396D+00 0.844D+00
 Gap=     0.532 Goal=   None    Shift=    0.000
 RMSDP=8.30D-05 MaxDP=2.12D-03 DE=-1.70D-04 OVMax= 3.33D-03

 Cycle   7  Pass 0  IDiag  1:
 RMSU=  2.23D-05    CP:  9.91D-01  1.26D+00  1.52D+00  1.32D+00  1.64D+00
                    CP:  1.26D+00
 E= -253.439264954954     Delta-E=       -0.000026933801 Rises=F Damp=F
 DIIS: error= 6.21D-05 at cycle   7 NSaved=   7.
 NSaved= 7 IEnMin= 7 EnMin= -253.439264954954     IErMin= 7 ErrMin= 6.21D-05
 ErrMax= 6.21D-05  0.00D+00 EMaxC= 1.00D-01 BMatC= 8.02D-07 BMatP= 1.31D-05
 IDIUse=1 WtCom= 1.00D+00 WtEn= 0.00D+00
 Coeff-Com:  0.294D-02-0.850D-02 0.208D-01 0.362D-01-0.172D+00-0.124D+00
 Coeff-Com:  0.124D+01
 Coeff:      0.294D-02-0.850D-02 0.208D-01 0.362D-01-0.172D+00-0.124D+00
 Coeff:      0.124D+01
 Gap=     0.532 Goal=   None    Shift=    0.000
 RMSDP=2.55D-05 MaxDP=5.55D-04 DE=-2.69D-05 OVMax= 9.86D-04

 Cycle   8  Pass 0  IDiag  1:
 RMSU=  6.06D-06    CP:  9.91D-01  1.26D+00  1.53D+00  1.33D+00  1.69D+00
                    CP:  1.44D+00  1.30D+00
 E= -253.439266981621     Delta-E=       -0.000002026667 Rises=F Damp=F
 DIIS: error= 9.57D-06 at cycle   8 NSaved=   8.
 NSaved= 8 IEnMin= 8 EnMin= -253.439266981621     IErMin= 8 ErrMin= 9.57D-06
 ErrMax= 9.57D-06  0.00D+00 EMaxC= 1.00D-01 BMatC= 4.21D-08 BMatP= 8.02D-07
 IDIUse=1 WtCom= 1.00D+00 WtEn= 0.00D+00
 Coeff-Com:  0.489D-03-0.168D-02 0.612D-02 0.768D-02-0.328D-01-0.286D-01
 Coeff-Com:  0.134D+00 0.914D+00
 Coeff:      0.489D-03-0.168D-02 0.612D-02 0.768D-02-0.328D-01-0.286D-01
 Coeff:      0.134D+00 0.914D+00
 Gap=     0.532 Goal=   None    Shift=    0.000
 RMSDP=2.38D-06 MaxDP=4.29D-05 DE=-2.03D-06 OVMax= 7.32D-05

 Initial convergence to 1.0D-05 achieved.  Increase integral accuracy.
 Cycle   9  Pass 1  IDiag  1:
 E= -253.439267047898     Delta-E=       -0.000000066277 Rises=F Damp=F
 DIIS: error= 4.76D-06 at cycle   1 NSaved=   1.
 NSaved= 1 IEnMin= 1 EnMin= -253.439267047898     IErMin= 1 ErrMin= 4.76D-06
 ErrMax= 4.76D-06  0.00D+00 EMaxC= 1.00D-01 BMatC= 8.14D-09 BMatP= 8.14D-09
 IDIUse=1 WtCom= 1.00D+00 WtEn= 0.00D+00
 Coeff-Com:  0.100D+01
 Coeff:      0.100D+01
 Gap=     0.532 Goal=   None    Shift=    0.000
 RMSDP=2.38D-06 MaxDP=4.29D-05 DE=-6.63D-08 OVMax= 4.05D-05

 Cycle  10  Pass 1  IDiag  1:
 RMSU=  9.33D-07    CP:  1.00D+00
 E= -253.439267060071     Delta-E=       -0.000000012173 Rises=F Damp=F
 DIIS: error= 2.53D-06 at cycle   2 NSaved=   2.
 NSaved= 2 IEnMin= 2 EnMin= -253.439267060071     IErMin= 2 ErrMin= 2.53D-06
 ErrMax= 2.53D-06  0.00D+00 EMaxC= 1.00D-01 BMatC= 2.62D-09 BMatP= 8.14D-09
 IDIUse=1 WtCom= 1.00D+00 WtEn= 0.00D+00
 Coeff-Com:  0.288D+00 0.712D+00
 Coeff:      0.288D+00 0.712D+00
 Gap=     0.532 Goal=   None    Shift=    0.000
 RMSDP=3.64D-07 MaxDP=8.78D-06 DE=-1.22D-08 OVMax= 1.37D-05

 Cycle  11  Pass 1  IDiag  1:
 RMSU=  3.38D-07    CP:  1.00D+00  1.15D+00
 E= -253.439267063343     Delta-E=       -0.000000003271 Rises=F Damp=F
 DIIS: error= 1.43D-06 at cycle   3 NSaved=   3.
 NSaved= 3 IEnMin= 3 EnMin= -253.439267063343     IErMin= 3 ErrMin= 1.43D-06
 ErrMax= 1.43D-06  0.00D+00 EMaxC= 1.00D-01 BMatC= 4.29D-10 BMatP= 2.62D-09
 IDIUse=1 WtCom= 1.00D+00 WtEn= 0.00D+00
 Coeff-Com: -0.345D+00-0.225D+00 0.157D+01
 Coeff:     -0.345D+00-0.225D+00 0.157D+01
 Gap=     0.532 Goal=   None    Shift=    0.000
 RMSDP=4.77D-07 MaxDP=1.06D-05 DE=-3.27D-09 OVMax= 2.44D-05

 Cycle  12  Pass 1  IDiag  1:
 RMSU=  1.18D-07    CP:  1.00D+00  1.58D+00  1.64D+00
 E= -253.439267064834     Delta-E=       -0.000000001491 Rises=F Damp=F
 DIIS: error= 3.16D-07 at cycle   4 NSaved=   4.
 NSaved= 4 IEnMin= 4 EnMin= -253.439267064834     IErMin= 4 ErrMin= 3.16D-07
 ErrMax= 3.16D-07  0.00D+00 EMaxC= 1.00D-01 BMatC= 1.72D-11 BMatP= 4.29D-10
 IDIUse=1 WtCom= 1.00D+00 WtEn= 0.00D+00
 Coeff-Com: -0.868D-01-0.725D-01 0.359D+00 0.800D+00
 Coeff:     -0.868D-01-0.725D-01 0.359D+00 0.800D+00
 Gap=     0.532 Goal=   None    Shift=    0.000
 RMSDP=5.51D-08 MaxDP=1.70D-06 DE=-1.49D-09 OVMax= 2.56D-06

 Cycle  13  Pass 1  IDiag  1:
 RMSU=  2.94D-08    CP:  1.00D+00  1.61D+00  1.72D+00  1.27D+00
 E= -253.439267064872     Delta-E=       -0.000000000038 Rises=F Damp=F
 DIIS: error= 1.69D-07 at cycle   5 NSaved=   5.
 NSaved= 5 IEnMin= 5 EnMin= -253.439267064872     IErMin= 5 ErrMin= 1.69D-07
 ErrMax= 1.69D-07  0.00D+00 EMaxC= 1.00D-01 BMatC= 3.33D-12 BMatP= 1.72D-11
 IDIUse=1 WtCom= 1.00D+00 WtEn= 0.00D+00
 Coeff-Com:  0.996D-01 0.659D-01-0.450D+00-0.817D-01 0.137D+01
 Coeff:      0.996D-01 0.659D-01-0.450D+00-0.817D-01 0.137D+01
 Gap=     0.532 Goal=   None    Shift=    0.000
 RMSDP=5.17D-08 MaxDP=1.41D-06 DE=-3.81D-11 OVMax= 2.26D-06

 Cycle  14  Pass 1  IDiag  1:
 RMSU=  1.16D-08    CP:  1.00D+00  1.62D+00  1.77D+00  1.64D+00  1.45D+00
 E= -253.439267064888     Delta-E=       -0.000000000016 Rises=F Damp=F
 DIIS: error= 3.65D-08 at cycle   6 NSaved=   6.
 NSaved= 6 IEnMin= 6 EnMin= -253.439267064888     IErMin= 6 ErrMin= 3.65D-08
 ErrMax= 3.65D-08  0.00D+00 EMaxC= 1.00D-01 BMatC= 1.64D-13 BMatP= 3.33D-12
 IDIUse=1 WtCom= 1.00D+00 WtEn= 0.00D+00
 Coeff-Com:  0.148D-01 0.107D-01-0.655D-01-0.428D-01 0.161D+00 0.922D+00
 Coeff:      0.148D-01 0.107D-01-0.655D-01-0.428D-01 0.161D+00 0.922D+00
 Gap=     0.532 Goal=   None    Shift=    0.000
 RMSDP=6.72D-09 MaxDP=1.91D-07 DE=-1.60D-11 OVMax= 3.00D-07

 SCF Done:  E(RHF) =  -253.439267065     A.U. after   14 cycles
            NFock= 14  Conv=0.67D-08     -V/T= 2.9206
 KE= 1.319597227751D+02 PE=-1.190404077272D+03 EE= 4.827537003245D+02
 Leave Link  502 at Wed May 11 21:47:34 2022, MaxMem= 67108864000 cpu:              60.9 elap:               2.2
 (Enter /cm/shared/apps/gaussian/intel/EM64T/SSE4_2-enabled/binary//g16/l801.exe)
 Range of M.O.s used for correlation:     1   129
 NBasis=   129 NAE=    33 NBE=    33 NFC=     0 NFV=     0
 NROrb=    129 NOA=    33 NOB=    33 NVA=    96 NVB=    96

 **** Warning!!: The largest alpha MO coefficient is  0.28658518D+02

 Leave Link  801 at Wed May 11 21:47:34 2022, MaxMem= 67108864000 cpu:               0.8 elap:               0.1
 (Enter /cm/shared/apps/gaussian/intel/EM64T/SSE4_2-enabled/binary//g16/l906.exe)
 FulOut=F Deriv=T AODrv=T NAtomX=    19
   MMem=           0  MDisk=          33 MDiskD=          33
  W3Min=      549153 MinDsk=     1693460 NBas6D=         129
 NBas2D=        8499    NTT=        8385    LW2=     3308096
    MDV= 67108625479 MDiskM=     7225088 NBas2p=        7917
 Disk-based method using ON**2 memory for 33 occupieds at a time.
 Permanent disk used for amplitudes=    12443904 words.
 Estimated scratch disk usage=   128602285 words.
 IMap=   1   2   3   4   5   6   7   8   9  10  11  12  13  14  15  16  17  18  19  20
 IMap=  21  22  23  24  25  26  27  28  29  30  31  32  33
 Actual    scratch disk usage=   117714093 words.
 JobTyp=1 Pass  1:  I=   1 to  33 NPSUse= 28 ParTrn=T ParDer=T DoDerP=T.
 (rs|ai) integrals will be sorted in core.
 Spin components of T(2) and E(2):
     alpha-alpha T2 =       0.3643203649D-01 E2=     -0.1165023445D+00
     alpha-beta  T2 =       0.2135198165D+00 E2=     -0.6940195344D+00
     beta-beta   T2 =       0.3643203649D-01 E2=     -0.1165023445D+00
 The integrals were generated   1 times.
 ANorm=    0.1134188648D+01
 E2 =    -0.9270242234D+00 EUMP2 =    -0.25436629128834D+03
 Leave Link  906 at Wed May 11 21:47:49 2022, MaxMem= 67108864000 cpu:             418.7 elap:              15.0
 (Enter /cm/shared/apps/gaussian/intel/EM64T/SSE4_2-enabled/binary//g16/l1101.exe)
 Using compressed Sx but separate Hx and Fx, NAtomX=    19.
 Will process     20 centers per pass.
   1 Symmetry operations used in ECPInt.
 ECPInt:  NShTT=    2346 NPrTT=    7709 LenC2=    2225 LenP2D=    5636.
 LDataN:  DoStor=T MaxTD1= 8 Len=  415
 Leave Link 1101 at Wed May 11 21:47:49 2022, MaxMem= 67108864000 cpu:              12.8 elap:               0.5
 (Enter /cm/shared/apps/gaussian/intel/EM64T/SSE4_2-enabled/binary//g16/l1102.exe)
 Leave Link 1102 at Wed May 11 21:47:49 2022, MaxMem= 67108864000 cpu:               0.6 elap:               0.0
 (Enter /cm/shared/apps/gaussian/intel/EM64T/SSE4_2-enabled/binary//g16/l1110.exe)
 Forming Gx(P) for the SCF density, NAtomX=    19.
 Integral derivatives from FoFJK, PRISM(SPDF).
 Do as many integral derivatives as possible in FoFJK.
 G2DrvN: MDV=   67108862534.
 G2DrvN: will do    20 centers at a time, making    1 passes.
 Calling FoFCou, ICntrl=  3107 FMM=F I1Cent=   0 AccDes= 0.00D+00.
 FoFJK:  IHMeth= 1 ICntrl=    3107 DoSepK=F KAlg= 0 I1Cent=           0 FoldK=F
 IRaf=         0 NMat=       1 IRICut=       1 DoRegI=T DoRafI=F ISym2E= 0 IDoP0=0 IntGTp=1.
 FoFCou: FMM=F IPFlag=           0 FMFlag=      100000 FMFlg1=           0
         NFxFlg=           0 DoJE=F BraDBF=F KetDBF=F FulRan=T
         wScrn=  0.000000 ICntrl=      3107 IOpCl=  0 I1Cent=           0 NGrid=           0
         NMat0=    1 NMatS0=      1 NMatT0=    0 NMatD0=    1 NMtDS0=    0 NMtDT0=    0
 Symmetry not used in FoFCou.
 End of G2Drv F.D. properties file   721 does not exist.
 End of G2Drv F.D. properties file   722 does not exist.
 End of G2Drv F.D. properties file   788 does not exist.
 Leave Link 1110 at Wed May 11 21:47:50 2022, MaxMem= 67108864000 cpu:              12.1 elap:               0.5
 (Enter /cm/shared/apps/gaussian/intel/EM64T/SSE4_2-enabled/binary//g16/l1002.exe)
 Minotr:  Closed shell wavefunction.
          IDoAtm=1111111111111111111
          Direct CPHF calculation.
          Differentiating once with respect to electric field.
                with respect to dipole field.
          Differentiating once with respect to nuclear coordinates.
          Requested convergence is 1.0D-08 RMS, and 1.0D-07 maximum.
          Secondary convergence is 1.0D-12 RMS, and 1.0D-12 maximum.
          NewPWx=T KeepS1=T KeepF1=T KeepIn=T MapXYZ=F SortEE=F KeepMc=T.
 Keep R1 ints in memory in canonical form, NReq=41159520.
 FoFCou: FMM=F IPFlag=           0 FMFlag=           0 FMFlg1=           0
         NFxFlg=           0 DoJE=F BraDBF=F KetDBF=F FulRan=T
         wScrn=  0.000000 ICntrl=       600 IOpCl=  0 I1Cent=           0 NGrid=           0
         NMat0=    1 NMatS0=   8385 NMatT0=    0 NMatD0=    1 NMtDS0=    0 NMtDT0=    0
 Symmetry not used in FoFCou.
 Two-electron integral symmetry not used.
          MDV=   67108864000 using IRadAn=       1.
          Solving linear equations simultaneously, MaxMat=       0.
          There are    60 degrees of freedom in the 1st order CPHF.  IDoFFX=6 NUNeed=    60.
     57 vectors produced by pass  0 Test12= 5.28D-15 1.67D-09 XBig12= 1.27D+01 1.22D+00.
 AX will form    57 AO Fock derivatives at one time.
     57 vectors produced by pass  1 Test12= 5.28D-15 1.67D-09 XBig12= 2.45D-01 6.87D-02.
     57 vectors produced by pass  2 Test12= 5.28D-15 1.67D-09 XBig12= 4.45D-03 1.20D-02.
     57 vectors produced by pass  3 Test12= 5.28D-15 1.67D-09 XBig12= 3.50D-05 1.10D-03.
     57 vectors produced by pass  4 Test12= 5.28D-15 1.67D-09 XBig12= 2.23D-07 6.88D-05.
     57 vectors produced by pass  5 Test12= 5.28D-15 1.67D-09 XBig12= 1.30D-09 5.48D-06.
     32 vectors produced by pass  6 Test12= 5.28D-15 1.67D-09 XBig12= 6.05D-12 3.43D-07.
      4 vectors produced by pass  7 Test12= 5.28D-15 1.67D-09 XBig12= 2.44D-14 2.18D-08.
      1 vectors produced by pass  8 Test12= 5.28D-15 1.67D-09 XBig12= 1.14D-16 1.67D-09.
 InvSVY:  IOpt=1 It=  1 EMax= 4.44D-15
 Solved reduced A of dimension   379 with    60 vectors.
 FullF1:  Do perturbations      1 to      60.
 Saving first derivative matrices.
 End of Minotr F.D. properties file   721 does not exist.
 End of Minotr F.D. properties file   722 does not exist.
 End of Minotr F.D. properties file   788 does not exist.
 Leave Link 1002 at Wed May 11 21:47:52 2022, MaxMem= 67108864000 cpu:              48.2 elap:               1.8
 (Enter /cm/shared/apps/gaussian/intel/EM64T/SSE4_2-enabled/binary//g16/l811.exe)
 MDV= 67108864000.
 Form MO integral derivatives with frozen-active canonical formalism.
 MOERI=1 MOERIx=1 NAtoms=    19 NAtomX=    19.
 Discarding MO integrals.
 MO basis two electron integral derivatives will not be stored on disk.
 IAlg= 3 DoFC=T DoPWx=T Debug=F.
 Reordered first order wavefunction length =     20072448
 In DefCFB: NBatch=  1 ICI= 33 ICA= 96 LFMax= 96
            Large arrays: LIAPS=   210874752 LIARS=   111567456 words.
 In StABat: MaxSiz= 39 MinSiz= 13 NAtomB=  4
 DoIAMN: NPSUse= 28.
 Leave Link  811 at Wed May 11 21:48:37 2022, MaxMem= 67108864000 cpu:            1259.6 elap:              45.2
 (Enter /cm/shared/apps/gaussian/intel/EM64T/SSE4_2-enabled/binary//g16/l804.exe)
 Closed-shell transformation, MDV= 67108864000 ITran=4 ISComp=1.
 Semi-Direct transformation.
 ModeAB=           4 MOrb=            33 LenV=   67108318452
 LASXX=     28702344 LTotXX=    28702344 LenRXX=    58192761
 LTotAB=    29490417 MaxLAS=    33106689 LenRXY=           0
 NonZer=    86895105 LenScr=   131092480 LnRSAI=    33106689
 LnScr1=    50419200 LExtra=           0 Total=    272811130
 MaxDsk=          -1 SrtSym=           T ITran=            4
 DoSDTr:  NPSUse= 28
 JobTyp=0 Pass  1:  I=   1 to  33.
 (rs|ai) integrals will be sorted in core.
 Complete sort for first half transformation.
 First half transformation complete.
 Begin second half transformation for I=  10.
 Begin second half transformation for I=  20.
 Begin second half transformation for I=  30.
 Complete sort for second half transformation.
 Second half transformation complete.
 SymMOI:  orbitals are not symmetric.
 Spin components of T(2) and E(2):
     alpha-alpha T2 =       0.3643203649D-01 E2=     -0.1165023445D+00
     alpha-beta  T2 =       0.2135198165D+00 E2=     -0.6940195344D+00
     beta-beta   T2 =       0.3643203649D-01 E2=     -0.1165023445D+00
 ANorm=    0.1603984968D+01
 E2 =    -0.9270242234D+00 EUMP2 =    -0.25436629128834D+03
 Leave Link  804 at Wed May 11 21:48:42 2022, MaxMem= 67108864000 cpu:             144.2 elap:               5.2
 (Enter /cm/shared/apps/gaussian/intel/EM64T/SSE4_2-enabled/binary//g16/l1002.exe)
 Minotr:  Closed shell wavefunction.
          Computing MP2/KS-MP2 derivatives.
          Using Z-Vector for PSCF gradient.
          Skipping F1 and S1 gradient terms here.
          IDoAtm=1111111111111111111
          Using MO integrals in the linear equations.
          Forming densities via direct SCF.
          Differentiating once with respect to electric field.
                with respect to dipole field.
          Differentiating once with respect to nuclear coordinates.
          Requested convergence is 1.0D-10 RMS, and 1.0D-09 maximum.
          NewPWx=F KeepS1=T KeepF1=T KeepIn=T MapXYZ=F SortEE=F KeepMc=T.
          MDV=   67108864000 using IRadAn=       5.
          Solving linear equations separately, MaxMat=       0.
          There are     1 degrees of freedom in the 1st order CPHF.  IDoFFX=0 NUNeed=     1.
 FoFJK:  IHMeth= 1 ICntrl=       0 DoSepK=F KAlg= 0 I1Cent=           0 FoldK=F
 IRaf=         0 NMat=       1 IRICut=       1 DoRegI=T DoRafI=F ISym2E= 0 IDoP0=0 IntGTp=1.
 FoFCou: FMM=F IPFlag=           0 FMFlag=      100000 FMFlg1=           0
         NFxFlg=           0 DoJE=F BraDBF=F KetDBF=F FulRan=T
         wScrn=  0.000000 ICntrl=         0 IOpCl=  0 I1Cent=           0 NGrid=           0
         NMat0=    1 NMatS0=      1 NMatT0=    0 NMatD0=    1 NMtDS0=    0 NMtDT0=    0
 Symmetry not used in FoFCou.
 LinEq1:  Iter=  0 NonCon=     1 RMS=6.45D-03 Max=1.21D-01 NDo=     1
 LinEq1:  Iter=  1 NonCon=     1 RMS=1.44D-03 Max=1.04D-02 NDo=     1
 LinEq1:  Iter=  2 NonCon=     1 RMS=4.71D-04 Max=9.07D-03 NDo=     1
 LinEq1:  Iter=  3 NonCon=     1 RMS=1.76D-04 Max=2.37D-03 NDo=     1
 LinEq1:  Iter=  4 NonCon=     1 RMS=5.48D-05 Max=1.06D-03 NDo=     1
 LinEq1:  Iter=  5 NonCon=     1 RMS=1.53D-05 Max=1.79D-04 NDo=     1
 LinEq1:  Iter=  6 NonCon=     1 RMS=5.88D-06 Max=6.52D-05 NDo=     1
 LinEq1:  Iter=  7 NonCon=     1 RMS=1.19D-06 Max=8.57D-06 NDo=     1
 LinEq1:  Iter=  8 NonCon=     1 RMS=4.78D-07 Max=3.97D-06 NDo=     1
 LinEq1:  Iter=  9 NonCon=     1 RMS=1.18D-07 Max=1.53D-06 NDo=     1
 LinEq1:  Iter= 10 NonCon=     1 RMS=2.89D-08 Max=3.81D-07 NDo=     1
 LinEq1:  Iter= 11 NonCon=     1 RMS=1.23D-08 Max=1.63D-07 NDo=     1
 LinEq1:  Iter= 12 NonCon=     1 RMS=2.80D-09 Max=5.41D-08 NDo=     1
 LinEq1:  Iter= 13 NonCon=     1 RMS=5.26D-10 Max=8.10D-09 NDo=     1
 LinEq1:  Iter= 14 NonCon=     1 RMS=2.09D-10 Max=2.39D-09 NDo=     1
 LinEq1:  Iter= 15 NonCon=     0 RMS=5.74D-11 Max=6.38D-10 NDo=     1
 Linear equations converged to 1.000D-10 1.000D-09 after    15 iterations.
 End of Minotr F.D. properties file   721 does not exist.
 End of Minotr F.D. properties file   722 does not exist.
 End of Minotr F.D. properties file   788 does not exist.
 Leave Link 1002 at Wed May 11 21:48:45 2022, MaxMem= 67108864000 cpu:              67.6 elap:               2.5
 (Enter /cm/shared/apps/gaussian/intel/EM64T/SSE4_2-enabled/binary//g16/l1102.exe)
 Use density number 2.
 Symmetrizing basis deriv contribution to polar:
 IMax=3 JMax=2 DiffMx= 0.00D+00
 Leave Link 1102 at Wed May 11 21:48:45 2022, MaxMem= 67108864000 cpu:               1.7 elap:               0.1
 (Enter /cm/shared/apps/gaussian/intel/EM64T/SSE4_2-enabled/binary//g16/l1110.exe)
 Forming Gx(P) for generalized density number  2 NAtomX=    19.
 Integral derivatives from FoFJK, PRISM(SPDF).
 Do as many integral derivatives as possible in FoFJK.
 G2DrvN: MDV=   67108862534.
 G2DrvN: will do    20 centers at a time, making    1 passes.
 Calling FoFCou, ICntrl=  3107 FMM=F I1Cent=   0 AccDes= 0.00D+00.
 FoFJK:  IHMeth= 1 ICntrl=    3107 DoSepK=F KAlg= 0 I1Cent=           0 FoldK=F
 IRaf=         0 NMat=       1 IRICut=       1 DoRegI=T DoRafI=F ISym2E= 0 IDoP0=0 IntGTp=1.
 FoFCou: FMM=F IPFlag=           0 FMFlag=      100000 FMFlg1=           0
         NFxFlg=           0 DoJE=F BraDBF=F KetDBF=F FulRan=T
         wScrn=  0.000000 ICntrl=      3107 IOpCl=  0 I1Cent=           0 NGrid=           0
         NMat0=    1 NMatS0=      1 NMatT0=    0 NMatD0=    1 NMtDS0=    0 NMtDT0=    0
 Symmetry not used in FoFCou.
 End of G2Drv F.D. properties file   721 does not exist.
 End of G2Drv F.D. properties file   722 does not exist.
 End of G2Drv F.D. properties file   788 does not exist.
 Leave Link 1110 at Wed May 11 21:48:45 2022, MaxMem= 67108864000 cpu:              11.9 elap:               0.5
 (Enter /cm/shared/apps/gaussian/intel/EM64T/SSE4_2-enabled/binary//g16/l1112.exe)
 MP22nd: MDV=   67108864000
 This link is doing NAtomX=    19 total of    60 degrees of freedom.
 Using ON3 I/O method in MakUI.
 Using Ix for Sx.
 Using OV2 memory method for fx*t*t/D, MaxI=    33 DoOO2=F NP=  28.
 R2 and R3 integrals will be kept in memory, NReq=    71415045.
 FoFCou: FMM=F IPFlag=           0 FMFlag=           0 FMFlg1=           0
         NFxFlg=           0 DoJE=F BraDBF=F KetDBF=F FulRan=T
         wScrn=  0.000000 ICntrl=       600 IOpCl=  0 I1Cent=           0 NGrid=           0
         NMat0=    1 NMatS0=      1 NMatT0=    0 NMatD0=    1 NMtDS0=    0 NMtDT0=    0
 Symmetry not used in FoFCou.
 DD1Dir will call FoFMem   1 times, MxPair=      1122
 NAB=   561 NAA=     0 NBB=     0.
 Symmetry is being used.
 FoFJK:  IHMeth= 1 ICntrl=       0 DoSepK=F KAlg= 0 I1Cent=           0 FoldK=F
 IRaf=         0 NMat=      60 IRICut=     150 DoRegI=T DoRafI=T ISym2E= 2 IDoP0=0 IntGTp=1.
 Discarding MO integrals.
 Leave Link 1112 at Wed May 11 21:49:16 2022, MaxMem= 67108864000 cpu:             862.0 elap:              30.9
 (Enter /cm/shared/apps/gaussian/intel/EM64T/SSE4_2-enabled/binary//g16/l601.exe)
 Copying SCF densities to generalized density rwf, IOpCl= 0 IROHF=0.

 **********************************************************************

            Population analysis using the SCF density.

 **********************************************************************

 Orbital symmetries:
       Occupied  (A) (A) (A) (A) (A) (A) (A) (A) (A) (A) (A) (A)
                 (A) (A) (A) (A) (A) (A) (A) (A) (A) (A) (A) (A)
                 (A) (A) (A) (A) (A) (A) (A) (A) (A)
       Virtual   (A) (A) (A) (A) (A) (A) (A) (A) (A) (A) (A) (A)
                 (A) (A) (A) (A) (A) (A) (A) (A) (A) (A) (A) (A)
                 (A) (A) (A) (A) (A) (A) (A) (A) (A) (A) (A) (A)
                 (A) (A) (A) (A) (A) (A) (A) (A) (A) (A) (A) (A)
                 (A) (A) (A) (A) (A) (A) (A) (A) (A) (A) (A) (A)
                 (A) (A) (A) (A) (A) (A) (A) (A) (A) (A) (A) (A)
                 (A) (A) (A) (A) (A) (A) (A) (A) (A) (A) (A) (A)
                 (A) (A) (A) (A) (A) (A) (A) (A) (A) (A) (A) (A)
 The electronic state is 1-A.
 Alpha  occ. eigenvalues --   -5.39464  -3.39059  -3.38654  -3.38434  -1.70541
 Alpha  occ. eigenvalues --   -1.67970  -1.66150  -1.64961  -1.63238  -1.58760
 Alpha  occ. eigenvalues --   -1.06317  -1.05387  -1.04584  -1.02837  -1.01245
 Alpha  occ. eigenvalues --   -1.00921  -0.98644  -0.97960  -0.96407  -0.95918
 Alpha  occ. eigenvalues --   -0.95184  -0.90741  -0.89335  -0.87800  -0.86150
 Alpha  occ. eigenvalues --   -0.84519  -0.83522  -0.81282  -0.80898  -0.79799
 Alpha  occ. eigenvalues --   -0.78321  -0.76118  -0.75727
 Alpha virt. eigenvalues --   -0.22555  -0.17061  -0.15514  -0.14037  -0.13005
 Alpha virt. eigenvalues --   -0.09564  -0.08444  -0.07685  -0.07296  -0.05886
 Alpha virt. eigenvalues --   -0.04294  -0.03865  -0.03491  -0.03080  -0.01037
 Alpha virt. eigenvalues --   -0.00289   0.00167   0.01151   0.01812   0.02094
 Alpha virt. eigenvalues --    0.02407   0.03043   0.03910   0.04254   0.05018
 Alpha virt. eigenvalues --    0.05977   0.07280   0.09913   0.10477   0.11586
 Alpha virt. eigenvalues --    0.12358   0.12721   0.14839   0.15620   0.16779
 Alpha virt. eigenvalues --    0.17035   0.19244   0.20164   0.20252   0.22478
 Alpha virt. eigenvalues --    0.23948   0.25524   0.27135   0.29443   0.38279
 Alpha virt. eigenvalues --    0.65089   0.68048   0.71114   0.72479   0.94100
 Alpha virt. eigenvalues --    0.98441   1.03354   1.06144   1.07604   1.07852
 Alpha virt. eigenvalues --    1.09761   1.10760   1.11458   1.12264   1.13489
 Alpha virt. eigenvalues --    1.15018   1.15525   1.16433   1.17618   1.18522
 Alpha virt. eigenvalues --    1.18687   1.19777   1.20110   1.21592   1.22590
 Alpha virt. eigenvalues --    1.23006   1.25086   1.28186   1.29508   1.31881
 Alpha virt. eigenvalues --    1.33239   1.34301   1.35084   1.36749   1.38049
 Alpha virt. eigenvalues --    1.38915   1.40961   1.50401   1.60170   2.20569
 Alpha virt. eigenvalues --    2.28470   2.32399   2.63765   2.93344   3.03342
 Alpha virt. eigenvalues --    4.27458  15.51727  41.62369  41.67599  41.76445
 Alpha virt. eigenvalues --   81.50038
          Condensed to atoms (all electrons):
               1          2          3          4          5          6
     1  Hg  18.416023   0.001263   0.000116   0.000155   0.000247   0.000035
     2  O    0.001263   6.410803   0.164805   0.251742  -0.056391   0.001101
     3  H    0.000116   0.164805   0.144536  -0.005347   0.080808  -0.001571
     4  H    0.000155   0.251742  -0.005347   0.235585   0.000539  -0.000012
     5  O    0.000247  -0.056391   0.080808   0.000539   6.353648   0.261088
     6  H    0.000035   0.001101  -0.001571  -0.000012   0.261088   0.240201
     7  H    0.000015   0.002233  -0.001447  -0.000021   0.262296  -0.013073
     8  O    0.152014  -0.019869  -0.000488   0.002096  -0.001509  -0.000004
     9  H    0.001240   0.168985  -0.000370  -0.006959   0.000583  -0.000003
    10  H   -0.016725   0.001828   0.000015  -0.000008   0.000073   0.000000
    11  O   -0.001909  -0.000000  -0.000000  -0.000000  -0.000000  -0.000000
    12  H    0.000350  -0.000000  -0.000000   0.000000  -0.000000  -0.000000
    13  H    0.000876   0.000000   0.000000   0.000000   0.000000   0.000000
    14  O    0.014761  -0.000822  -0.000005   0.000022  -0.000007  -0.000000
    15  H   -0.003439  -0.000008  -0.000000   0.000000  -0.000000  -0.000000
    16  H   -0.001070   0.000016   0.000000  -0.000000   0.000000   0.000000
    17  O    0.104953  -0.000016   0.000000   0.000001   0.000001   0.000000
    18  H   -0.002874   0.000000  -0.000000   0.000000   0.000000  -0.000000
    19  H   -0.006080   0.000000  -0.000000  -0.000000  -0.000000  -0.000000
               7          8          9         10         11         12
     1  Hg   0.000015   0.152014   0.001240  -0.016725  -0.001909   0.000350
     2  O    0.002233  -0.019869   0.168985   0.001828  -0.000000  -0.000000
     3  H   -0.001447  -0.000488  -0.000370   0.000015  -0.000000  -0.000000
     4  H   -0.000021   0.002096  -0.006959  -0.000008  -0.000000   0.000000
     5  O    0.262296  -0.001509   0.000583   0.000073  -0.000000  -0.000000
     6  H   -0.013073  -0.000004  -0.000003   0.000000  -0.000000  -0.000000
     7  H    0.236754   0.000032  -0.000006  -0.000000  -0.000000  -0.000000
     8  O    0.000032   6.673846   0.058984   0.243813  -0.000002   0.000000
     9  H   -0.000006   0.058984   0.139690  -0.002931  -0.000000  -0.000000
    10  H   -0.000000   0.243813  -0.002931   0.283587   0.000007   0.000000
    11  O   -0.000000  -0.000002  -0.000000   0.000007   6.370638   0.260094
    12  H   -0.000000   0.000000  -0.000000   0.000000   0.260094   0.244516
    13  H    0.000000   0.000002   0.000000  -0.000000   0.261654  -0.013973
    14  O   -0.000000  -0.004728  -0.000087   0.000194  -0.003042   0.000053
    15  H    0.000000   0.000332  -0.000001  -0.000001   0.000043  -0.000000
    16  H    0.000000   0.000098   0.000000   0.000000  -0.000003   0.000000
    17  O   -0.000000   0.000680   0.000025  -0.000237  -0.049282   0.000939
    18  H    0.000000   0.000044  -0.000000   0.000001   0.069833  -0.001723
    19  H    0.000000  -0.000090   0.000000  -0.000000   0.001146  -0.000035
              13         14         15         16         17         18
     1  Hg   0.000876   0.014761  -0.003439  -0.001070   0.104953  -0.002874
     2  O    0.000000  -0.000822  -0.000008   0.000016  -0.000016   0.000000
     3  H    0.000000  -0.000005  -0.000000   0.000000   0.000000  -0.000000
     4  H    0.000000   0.000022   0.000000  -0.000000   0.000001   0.000000
     5  O    0.000000  -0.000007  -0.000000   0.000000   0.000001   0.000000
     6  H    0.000000  -0.000000  -0.000000   0.000000   0.000000  -0.000000
     7  H    0.000000  -0.000000   0.000000   0.000000  -0.000000   0.000000
     8  O    0.000002  -0.004728   0.000332   0.000098   0.000680   0.000044
     9  H    0.000000  -0.000087  -0.000001   0.000000   0.000025  -0.000000
    10  H   -0.000000   0.000194  -0.000001   0.000000  -0.000237   0.000001
    11  O    0.261654  -0.003042   0.000043  -0.000003  -0.049282   0.069833
    12  H   -0.013973   0.000053  -0.000000   0.000000   0.000939  -0.001723
    13  H    0.237399  -0.000089  -0.000000   0.000002   0.001416  -0.001964
    14  O   -0.000089   6.422265   0.263992   0.262969  -0.009129   0.000896
    15  H   -0.000000   0.263992   0.255469  -0.016477   0.000551  -0.000008
    16  H    0.000002   0.262969  -0.016477   0.255073  -0.000070   0.000008
    17  O    0.001416  -0.009129   0.000551  -0.000070   6.564274   0.169035
    18  H   -0.001964   0.000896  -0.000008   0.000008   0.169035   0.144982
    19  H   -0.000027   0.000599  -0.000000  -0.000004   0.244521  -0.008131
              19
     1  Hg  -0.006080
     2  O    0.000000
     3  H   -0.000000
     4  H   -0.000000
     5  O   -0.000000
     6  H   -0.000000
     7  H    0.000000
     8  O   -0.000090
     9  H    0.000000
    10  H   -0.000000
    11  O    0.001146
    12  H   -0.000035
    13  H   -0.000027
    14  O    0.000599
    15  H   -0.000000
    16  H   -0.000004
    17  O    0.244521
    18  H   -0.008131
    19  H    0.242413
 Mulliken charges:
               1
     1  Hg   1.340048
     2  O   -0.925669
     3  H    0.618949
     4  H    0.522207
     5  O   -0.901375
     6  H    0.512238
     7  H    0.513218
     8  O   -1.105251
     9  H    0.640850
    10  H    0.490385
    11  O   -0.909177
    12  H    0.509779
    13  H    0.514705
    14  O   -0.947842
    15  H    0.499547
    16  H    0.499458
    17  O   -1.027660
    18  H    0.629903
    19  H    0.525687
 Sum of Mulliken charges =   2.00000
 Mulliken charges with hydrogens summed into heavy atoms:
               1
     1  Hg   1.340048
     2  O    0.856338
     5  O    0.124081
     8  O   -0.614867
    11  O    0.115307
    14  O    0.051163
    17  O    0.127930
         Mulliken charges condensed to fragments:
      1      1.340048
      2      0.659952
 APT charges:
               1
     1  Hg   1.373101
     2  O   -1.023979
     3  H    0.870609
     4  H    0.405843
     5  O   -0.816626
     6  H    0.398547
     7  H    0.402316
     8  O   -0.887884
     9  H    0.807147
    10  H    0.269546
    11  O   -0.793393
    12  H    0.381536
    13  H    0.388764
    14  O   -0.690774
    15  H    0.340917
    16  H    0.339639
    17  O   -0.934462
    18  H    0.825197
    19  H    0.343958
 Sum of APT charges =   2.00000
 APT charges with hydrogens summed into heavy atoms:
               1
     1  Hg   1.373101
     2  O    1.059620
     5  O   -0.015764
     8  O   -0.618338
    11  O   -0.023093
    14  O   -0.010218
    17  O    0.234692
         APT charges condensed to fragments:
      1      1.373101
      2      0.626899
 Electronic spatial extent (au):  <R**2>=           2427.1721
 Charge=              2.0000 electrons
 Dipole moment (field-independent basis, Debye):
    X=              4.7137    Y=              1.4140    Z=             -0.0347  Tot=              4.9213
 Quadrupole moment (field-independent basis, Debye-Ang):
   XX=            103.6453   YY=            -32.4274   ZZ=            -47.5841
   XY=              4.7970   XZ=             -2.7363   YZ=              1.1772
 Traceless Quadrupole moment (field-independent basis, Debye-Ang):
   XX=             95.7674   YY=            -40.3054   ZZ=            -55.4620
   XY=              4.7970   XZ=             -2.7363   YZ=              1.1772
 Octapole moment (field-independent basis, Debye-Ang**2):
  XXX=            304.5346  YYY=             24.2747  ZZZ=             -1.0797  XYY=            -27.4429
  XXY=             -0.6202  XXZ=             24.9637  XZZ=              8.8494  YZZ=             -6.3648
  YYZ=              0.8764  XYZ=             -9.0601
 Hexadecapole moment (field-independent basis, Debye-Ang**3):
 XXXX=           2502.9294 YYYY=           -130.4438 ZZZZ=           -112.7652 XXXY=            -41.0583
 XXXZ=            212.6893 YYYX=              1.4852 YYYZ=              0.9881 ZZZX=             26.9398
 ZZZY=             11.9939 XXYY=           -387.7633 XXZZ=           -306.7965 YYZZ=            -40.5405
 XXYZ=              7.8711 YYXZ=            -53.1260 ZZXY=              7.7458
 N-N= 3.222513871074D+02 E-N=-1.190404077502D+03  KE= 1.319597227751D+02
  Exact polarizability:  78.496  -0.724  51.787  -2.857  -0.476  47.488
 Approx polarizability:  41.613  -0.601  34.999  -0.377   0.455  34.542
 No NMR shielding tensors so no spin-rotation constants.
 Leave Link  601 at Wed May 11 21:49:16 2022, MaxMem= 67108864000 cpu:               3.8 elap:               0.2
 (Enter /cm/shared/apps/gaussian/intel/EM64T/SSE4_2-enabled/binary//g16/l701.exe)
 ... and contract with generalized density number  2.
 Compute integral second derivatives.
   1 Symmetry operations used in ECPInt.
 ECPInt:  NShTT=    2346 NPrTT=    7709 LenC2=    2225 LenP2D=    5636.
 LDataN:  DoStor=T MaxTD1= 9 Len=  602
 Leave Link  701 at Wed May 11 21:49:18 2022, MaxMem= 67108864000 cpu:              38.7 elap:               1.4
 (Enter /cm/shared/apps/gaussian/intel/EM64T/SSE4_2-enabled/binary//g16/l702.exe)
 L702 exits ... SP integral derivatives will be done elsewhere.
 Leave Link  702 at Wed May 11 21:49:18 2022, MaxMem= 67108864000 cpu:               0.6 elap:               0.0
 (Enter /cm/shared/apps/gaussian/intel/EM64T/SSE4_2-enabled/binary//g16/l703.exe)
 Integral derivatives from FoFJK, PRISM(SPDF).
 Compute integral second derivatives, UseDBF=F ICtDFT=           0.
 Calling FoFJK, ICntrl=  10100127 FMM=F ISym2X=0 I1Cent= 0 IOpClX= 0 NMat=1 NMatS=1 NMatT=0.
 FoFJK:  IHMeth= 1 ICntrl=10100127 DoSepK=F KAlg= 0 I1Cent=           0 FoldK=F
 IRaf=         0 NMat=       1 IRICut=       1 DoRegI=T DoRafI=F ISym2E= 0 IDoP0=0 IntGTp=1.
 FoFCou: FMM=F IPFlag=           0 FMFlag=      100000 FMFlg1=         800
         NFxFlg=           0 DoJE=F BraDBF=F KetDBF=F FulRan=T
         wScrn=  0.000000 ICntrl=  10100127 IOpCl=  0 I1Cent=           0 NGrid=           0
         NMat0=    1 NMatS0=      1 NMatT0=    0 NMatD0=    1 NMtDS0=    0 NMtDT0=    0
 Symmetry not used in FoFCou.
 Leave Link  703 at Wed May 11 21:49:18 2022, MaxMem= 67108864000 cpu:              19.0 elap:               0.7
 (Enter /cm/shared/apps/gaussian/intel/EM64T/SSE4_2-enabled/binary//g16/l716.exe)
 Dipole        = 1.93291412D+00 6.64723248D-01-9.57633504D-03
 Polarizability= 7.84961961D+01-7.24444299D-01 5.17868729D+01
                -2.85715462D+00-4.76122179D-01 4.74884078D+01
 Full mass-weighted force constant matrix:
 Low frequencies --- -440.8426 -343.5667 -332.1591 -164.8515 -101.4514  -93.7205
 Low frequencies ---  -73.5149  -37.3392  -25.4180
 ******    7 imaginary frequencies (negative Signs) ****** 
 Diagonal vibrational polarizability:
      345.1841284    1134.4568314     890.5543503
 Harmonic frequencies (cm**-1), IR intensities (KM/Mole), Raman scattering
 activities (A**4/AMU), depolarization ratios for plane and unpolarized
 incident light, reduced masses (AMU), force constants (mDyne/A),
 and normal coordinates:
                      1                      2                      3
                      A                      A                      A
 Frequencies --   -440.5682              -342.0785              -330.6413
 Red. masses --      1.0123                 1.0306                 1.0296
 Frc consts  --      0.1158                 0.0711                 0.0663
 IR Inten    --      4.5752                53.5676                37.9334
  Atom  AN      X      Y      Z        X      Y      Z        X      Y      Z
     1  80     0.00   0.00  -0.00    -0.00  -0.00  -0.00     0.00  -0.00   0.00
     2   8    -0.00   0.00   0.00    -0.00   0.00   0.01    -0.01   0.00   0.00
     3   1    -0.00   0.00   0.00    -0.00   0.00   0.01    -0.00   0.02   0.04
     4   1    -0.00   0.00   0.01     0.00   0.00   0.01    -0.00   0.01   0.01
     5   8    -0.00  -0.00   0.00     0.00  -0.00  -0.00     0.01  -0.01  -0.03
     6   1    -0.00  -0.00   0.00     0.03   0.07  -0.01     0.28   0.65  -0.03
     7   1    -0.00  -0.00   0.00    -0.03  -0.07   0.03    -0.33  -0.53   0.29
     8   8     0.00  -0.00   0.00    -0.00   0.01  -0.00     0.00  -0.01  -0.00
     9   1    -0.00   0.00  -0.00     0.00   0.00   0.00     0.01  -0.01  -0.01
    10   1     0.01  -0.01   0.01    -0.01   0.02  -0.02     0.01  -0.03   0.03
    11   8     0.00   0.00  -0.00     0.00  -0.02  -0.02    -0.00   0.00   0.00
    12   1    -0.01  -0.00   0.01    -0.22  -0.31   0.59     0.03   0.03  -0.06
    13   1     0.01   0.00   0.01     0.25   0.54  -0.37    -0.03  -0.05   0.03
    14   8    -0.01   0.00   0.01    -0.01   0.00   0.01     0.00   0.00  -0.02
    15   1    -0.69  -0.06  -0.10     0.04   0.01   0.02    -0.00  -0.01  -0.03
    16   1     0.70   0.09  -0.04     0.03  -0.00   0.02    -0.00   0.02  -0.02
    17   8     0.00  -0.01  -0.00     0.00   0.00   0.01    -0.00   0.01   0.00
    18   1     0.01   0.00   0.01    -0.00   0.03   0.04     0.00   0.00  -0.00
    19   1    -0.00  -0.01  -0.02    -0.00   0.00  -0.00    -0.00   0.01   0.01
                      4                      5                      6
                      A                      A                      A
 Frequencies --   -157.3257               -96.3723               -89.6680
 Red. masses --      1.5991                 2.6935                 2.8100
 Frc consts  --      0.0233                 0.0147                 0.0133
 IR Inten    --     31.6906                 6.5243                12.8580
  Atom  AN      X      Y      Z        X      Y      Z        X      Y      Z
     1  80    -0.00   0.01  -0.01     0.00  -0.01  -0.00     0.00  -0.01   0.01
     2   8     0.01   0.06  -0.02     0.04   0.02  -0.09    -0.04   0.06   0.21
     3   1    -0.00   0.06  -0.01     0.02   0.02  -0.03    -0.01   0.04   0.11
     4   1     0.02   0.00  -0.08     0.06  -0.06  -0.17    -0.07   0.19   0.33
     5   8    -0.01   0.01  -0.03    -0.01   0.05   0.10     0.04  -0.04  -0.17
     6   1    -0.04  -0.01  -0.05     0.10   0.05   0.22    -0.17  -0.04  -0.41
     7   1     0.02   0.01  -0.04    -0.14   0.11   0.15     0.31  -0.17  -0.27
     8   8     0.06  -0.13   0.09     0.01   0.04   0.02     0.02   0.03   0.07
     9   1    -0.01   0.06   0.03     0.02   0.03  -0.03    -0.01   0.05   0.14
    10   1     0.29  -0.59   0.68     0.00   0.06  -0.01     0.07   0.02   0.09
    11   8    -0.02   0.01   0.01    -0.01   0.16   0.14    -0.01   0.05   0.01
    12   1    -0.05   0.01   0.04    -0.26   0.35   0.24    -0.08   0.10   0.04
    13   1     0.00   0.03   0.01     0.26   0.23   0.33     0.07   0.07   0.07
    14   8     0.01  -0.02   0.05    -0.02  -0.01  -0.06    -0.02   0.01  -0.16
    15   1     0.00   0.05   0.12     0.06  -0.11  -0.15     0.03  -0.14  -0.31
    16   1     0.00  -0.11   0.10    -0.04   0.11  -0.12    -0.06   0.21  -0.26
    17   8    -0.02  -0.00  -0.03    -0.03  -0.15  -0.12    -0.02  -0.04  -0.05
    18   1    -0.02   0.00  -0.02    -0.02  -0.06  -0.06    -0.01  -0.02  -0.04
    19   1    -0.01  -0.01  -0.06    -0.04  -0.22  -0.35    -0.03  -0.06  -0.12
                      7                      8                      9
                      A                      A                      A
 Frequencies --    -16.0252                33.8316                47.4905
 Red. masses --      4.9156                 5.5661                 5.5809
 Frc consts  --      0.0007                 0.0038                 0.0074
 IR Inten    --     12.0934                19.8264                 2.8530
  Atom  AN      X      Y      Z        X      Y      Z        X      Y      Z
     1  80    -0.01  -0.04   0.02     0.00  -0.02  -0.06    -0.02   0.03  -0.01
     2   8    -0.04  -0.02  -0.02    -0.16  -0.02   0.20     0.15  -0.24   0.06
     3   1     0.04   0.06  -0.05    -0.09   0.04   0.16     0.23  -0.17   0.04
     4   1    -0.14   0.02  -0.02    -0.21   0.12   0.34     0.07  -0.24   0.03
     5   8     0.15   0.22  -0.10    -0.01   0.15   0.12     0.37   0.08   0.01
     6   1     0.15   0.28  -0.13    -0.03   0.17   0.09     0.41   0.16   0.01
     7   1     0.17   0.27  -0.12     0.03   0.20   0.09     0.34   0.17  -0.00
     8   8    -0.03  -0.05  -0.01    -0.01  -0.11  -0.09     0.02  -0.06   0.06
     9   1    -0.01  -0.08   0.00    -0.07  -0.10   0.05     0.14  -0.24   0.12
    10   1    -0.10   0.06  -0.14    -0.00  -0.13  -0.06    -0.07   0.02  -0.05
    11   8     0.11   0.25  -0.20    -0.02   0.08   0.25    -0.15  -0.10   0.08
    12   1     0.10   0.31  -0.26    -0.05   0.10   0.26    -0.14  -0.15   0.12
    13   1     0.12   0.29  -0.23     0.02   0.06   0.30    -0.16  -0.13   0.10
    14   8     0.03  -0.02   0.12     0.13   0.02  -0.02    -0.09   0.01  -0.01
    15   1     0.03   0.07   0.20     0.11   0.08   0.04    -0.10   0.03   0.01
    16   1     0.07  -0.12   0.17     0.14  -0.06   0.02    -0.08  -0.02   0.01
    17   8    -0.05   0.06  -0.02     0.06   0.15   0.14    -0.04   0.00  -0.04
    18   1     0.01   0.13  -0.09     0.03   0.10   0.15    -0.07  -0.01  -0.01
    19   1    -0.14   0.08  -0.03     0.08   0.21   0.32    -0.01  -0.01  -0.08
                     10                     11                     12
                      A                      A                      A
 Frequencies --     70.1926               110.5658               114.1158
 Red. masses --      5.2843                 5.6948                 5.7266
 Frc consts  --      0.0153                 0.0410                 0.0439
 IR Inten    --      1.7966                 6.6381                 9.3665
  Atom  AN      X      Y      Z        X      Y      Z        X      Y      Z
     1  80    -0.03  -0.00   0.01    -0.02  -0.06  -0.03    -0.06   0.02  -0.02
     2   8    -0.00   0.03  -0.03     0.24   0.20  -0.04     0.08  -0.01   0.03
     3   1     0.00   0.04  -0.02     0.17   0.10  -0.00     0.07  -0.03   0.04
     4   1    -0.01  -0.00  -0.06     0.29   0.04  -0.18     0.10  -0.06  -0.03
     5   8     0.02   0.06  -0.01     0.05  -0.04   0.02     0.08  -0.00   0.03
     6   1     0.03   0.07  -0.01     0.05  -0.08   0.04     0.08   0.00   0.03
     7   1     0.00   0.07  -0.01     0.03  -0.11   0.05     0.08   0.01   0.03
     8   8    -0.02   0.05   0.02     0.05   0.21   0.19    -0.01   0.04   0.05
     9   1    -0.02   0.03   0.01     0.15   0.29   0.14     0.04   0.04   0.08
    10   1    -0.03   0.09  -0.03     0.18   0.33   0.08     0.11  -0.13   0.28
    11   8    -0.11  -0.12  -0.03    -0.06   0.05   0.05     0.33  -0.01  -0.02
    12   1    -0.12  -0.15   0.01     0.03  -0.01   0.01     0.30   0.10  -0.11
    13   1    -0.10  -0.11  -0.04    -0.15  -0.00   0.02     0.36   0.05  -0.05
    14   8     0.46   0.08   0.01    -0.00   0.06  -0.00     0.07  -0.03  -0.05
    15   1     0.51  -0.02  -0.09    -0.01   0.12   0.05     0.12  -0.11  -0.13
    16   1     0.52   0.20  -0.06     0.06  -0.00   0.03     0.06   0.05  -0.10
    17   8    -0.06  -0.07  -0.10    -0.01   0.20   0.08     0.10  -0.21   0.23
    18   1    -0.08  -0.09  -0.08    -0.02   0.16   0.05     0.11  -0.26   0.21
    19   1    -0.04  -0.09  -0.14    -0.05   0.30   0.35     0.23  -0.24   0.21
                     13                     14                     15
                      A                      A                      A
 Frequencies --    173.9854               242.5368               284.4498
 Red. masses --      6.0614                 2.5672                 1.2063
 Frc consts  --      0.1081                 0.0890                 0.0575
 IR Inten    --      2.8334               125.1450               138.3471
  Atom  AN      X      Y      Z        X      Y      Z        X      Y      Z
     1  80     0.00  -0.03  -0.01    -0.00   0.01  -0.01    -0.00   0.00   0.01
     2   8    -0.03  -0.03  -0.01    -0.08  -0.02  -0.03    -0.02  -0.02   0.00
     3   1    -0.02  -0.01  -0.01    -0.06   0.06  -0.03    -0.04  -0.02   0.01
     4   1    -0.06  -0.02  -0.00    -0.17  -0.12  -0.17     0.01  -0.05  -0.02
     5   8    -0.02   0.00  -0.01    -0.06   0.01  -0.03     0.01  -0.01  -0.00
     6   1    -0.01   0.00   0.00    -0.06   0.03  -0.05     0.00   0.02  -0.03
     7   1    -0.03   0.02  -0.01    -0.05  -0.02  -0.03     0.03  -0.01  -0.01
     8   8     0.00  -0.08   0.03     0.10  -0.09   0.26    -0.02   0.05  -0.02
     9   1    -0.02  -0.05   0.00    -0.08  -0.15   0.10    -0.04   0.01   0.00
    10   1    -0.01  -0.08   0.03    -0.17   0.55  -0.54     0.04  -0.05   0.11
    11   8     0.09  -0.06   0.01     0.04  -0.01   0.02     0.02  -0.05  -0.02
    12   1     0.03   0.05  -0.04     0.01   0.02   0.01    -0.33   0.29   0.02
    13   1     0.18  -0.06   0.09     0.06  -0.01   0.04     0.41   0.01   0.28
    14   8    -0.10   0.53   0.08     0.01  -0.03  -0.03     0.00  -0.01  -0.04
    15   1     0.01   0.51   0.06    -0.02   0.16   0.16    -0.04   0.22   0.19
    16   1    -0.09   0.56   0.06     0.06  -0.27   0.10     0.07  -0.29   0.12
    17   8     0.04  -0.06  -0.05     0.02  -0.01  -0.01    -0.01   0.03  -0.05
    18   1    -0.00  -0.09  -0.08     0.00  -0.02  -0.01    -0.05  -0.23  -0.24
    19   1     0.09  -0.06  -0.01     0.05  -0.02  -0.02     0.10   0.17   0.42
                     16                     17                     18
                      A                      A                      A
 Frequencies --    303.3244               307.9019               323.0824
 Red. masses --      1.2859                 2.4309                 1.1410
 Frc consts  --      0.0697                 0.1358                 0.0702
 IR Inten    --     21.4833                92.3792                82.9881
  Atom  AN      X      Y      Z        X      Y      Z        X      Y      Z
     1  80     0.00   0.00  -0.01     0.01  -0.01  -0.00    -0.00   0.00  -0.00
     2   8    -0.02  -0.02  -0.01    -0.14  -0.14  -0.02    -0.01   0.04  -0.02
     3   1    -0.01  -0.01  -0.01    -0.19  -0.12   0.01    -0.09   0.12   0.32
     4   1    -0.03  -0.06  -0.06    -0.07  -0.35  -0.23     0.13  -0.34  -0.37
     5   8    -0.01   0.01  -0.00    -0.00   0.01  -0.00     0.02   0.00   0.07
     6   1    -0.00   0.01   0.00     0.03   0.13  -0.03    -0.30   0.14  -0.37
     7   1    -0.02   0.02  -0.00     0.01   0.13  -0.04     0.46  -0.34  -0.06
     8   8     0.01  -0.01   0.04    -0.02   0.20   0.08    -0.01  -0.02  -0.04
     9   1    -0.02  -0.03   0.03    -0.28  -0.03   0.12    -0.01  -0.02   0.06
    10   1     0.01   0.03  -0.02     0.28  -0.10   0.49    -0.04   0.01  -0.08
    11   8     0.00  -0.02  -0.02     0.04   0.00   0.04    -0.00   0.00   0.01
    12   1    -0.16   0.13   0.00     0.24  -0.19   0.01     0.01  -0.00  -0.00
    13   1     0.18  -0.02   0.14    -0.17  -0.03  -0.13    -0.01  -0.00   0.00
    14   8    -0.01  -0.03   0.10    -0.01  -0.00  -0.01    -0.01   0.00   0.01
    15   1     0.11  -0.50  -0.36     0.03  -0.03  -0.04     0.03  -0.01   0.01
    16   1    -0.08   0.55  -0.22     0.02   0.03  -0.03     0.03   0.01   0.01
    17   8     0.01   0.04  -0.01     0.03   0.04  -0.04    -0.00  -0.00  -0.00
    18   1    -0.01  -0.10  -0.10     0.02   0.19   0.04     0.00   0.01   0.01
    19   1     0.06   0.13   0.29    -0.05   0.01  -0.18    -0.00  -0.01  -0.03
                     19                     20                     21
                      A                      A                      A
 Frequencies --    362.2357               438.5079               484.6278
 Red. masses --      4.4212                 3.6948                 1.3646
 Frc consts  --      0.3418                 0.4186                 0.1888
 IR Inten    --     50.0567               393.4632                60.3847
  Atom  AN      X      Y      Z        X      Y      Z        X      Y      Z
     1  80     0.03   0.00  -0.01    -0.00  -0.00   0.00    -0.00   0.00   0.00
     2   8    -0.05  -0.06  -0.01    -0.22   0.15  -0.10     0.02  -0.07  -0.08
     3   1    -0.06  -0.05   0.02    -0.32   0.30  -0.22    -0.03  -0.03   0.08
     4   1    -0.03  -0.17  -0.12    -0.26   0.37   0.12     0.10   0.40   0.47
     5   8    -0.02   0.01  -0.01     0.24  -0.18   0.09    -0.03   0.04   0.04
     6   1    -0.02   0.06  -0.04     0.35  -0.12   0.18    -0.23   0.11  -0.22
     7   1     0.00   0.04  -0.03     0.20  -0.01   0.06     0.23  -0.18  -0.02
     8   8     0.03   0.07   0.04     0.03  -0.00   0.01     0.01   0.02   0.04
     9   1    -0.10  -0.02   0.07    -0.20   0.04  -0.20     0.03   0.06  -0.31
    10   1     0.13   0.01   0.13     0.03   0.04  -0.05    -0.00   0.00   0.05
    11   8    -0.26   0.11  -0.13    -0.01   0.01  -0.00    -0.00   0.03   0.02
    12   1    -0.42   0.26  -0.12     0.02  -0.02   0.00     0.13  -0.09  -0.01
    13   1    -0.14   0.13  -0.04    -0.04   0.02  -0.04    -0.15   0.05  -0.14
    14   8     0.01   0.06  -0.00     0.02   0.00   0.01     0.02  -0.00   0.00
    15   1    -0.13   0.11   0.04    -0.13  -0.02  -0.03    -0.15  -0.00  -0.01
    16   1    -0.13  -0.01   0.03    -0.16   0.05  -0.02    -0.15   0.01  -0.00
    17   8    -0.03  -0.17   0.26     0.00  -0.01  -0.00     0.02  -0.04  -0.06
    18   1     0.06  -0.33   0.24    -0.01  -0.01   0.02    -0.01  -0.04   0.06
    19   1     0.07  -0.15   0.37     0.01   0.02   0.10     0.04   0.11   0.38
                     22                     23                     24
                      A                      A                      A
 Frequencies --    489.2354               520.9660               574.4858
 Red. masses --      1.3654                 1.1771                 4.7290
 Frc consts  --      0.1925                 0.1882                 0.9196
 IR Inten    --     56.2467               307.0689               182.8839
  Atom  AN      X      Y      Z        X      Y      Z        X      Y      Z
     1  80    -0.00   0.00   0.00     0.00   0.00   0.00    -0.01  -0.00   0.00
     2   8     0.01   0.04   0.05    -0.01   0.00  -0.01     0.01   0.02  -0.01
     3   1     0.04   0.01  -0.04    -0.02   0.00  -0.01     0.04   0.01  -0.01
     4   1    -0.05  -0.28  -0.32     0.01   0.06   0.06    -0.03   0.09   0.05
     5   8     0.00  -0.01  -0.03     0.01  -0.00   0.00     0.02  -0.00   0.01
     6   1     0.12  -0.05   0.12     0.01  -0.01   0.01    -0.00  -0.06   0.01
     7   1    -0.15   0.11   0.01     0.00  -0.00   0.00     0.02  -0.08   0.03
     8   8    -0.02  -0.02  -0.02     0.03   0.00  -0.01    -0.21  -0.03   0.08
     9   1     0.01  -0.04   0.21    -0.00  -0.01  -0.07     0.02   0.04   0.02
    10   1    -0.04  -0.01  -0.04     0.01  -0.01  -0.00    -0.17  -0.03   0.09
    11   8    -0.01   0.04   0.03    -0.02   0.01   0.02    -0.11   0.07  -0.10
    12   1     0.21  -0.14  -0.03     0.07   0.03  -0.12    -0.21  -0.10   0.20
    13   1    -0.25   0.08  -0.24    -0.10   0.05  -0.11    -0.05  -0.23   0.27
    14   8     0.02   0.00  -0.01    -0.09  -0.00  -0.01    -0.02  -0.01  -0.01
    15   1    -0.15   0.01  -0.01     0.67  -0.02   0.02     0.20   0.02   0.04
    16   1    -0.13  -0.00  -0.01     0.66  -0.03   0.01     0.17  -0.06   0.02
    17   8     0.03  -0.07  -0.09    -0.01  -0.03  -0.01     0.40   0.01  -0.06
    18   1    -0.02  -0.06   0.09    -0.03  -0.01   0.05     0.44   0.00   0.01
    19   1     0.07   0.19   0.63    -0.00   0.05   0.21     0.37  -0.04  -0.23
                     25                     26                     27
                      A                      A                      A
 Frequencies --    590.2461               642.3788               658.6714
 Red. masses --      1.0684                 2.5299                 1.8019
 Frc consts  --      0.2193                 0.6151                 0.4606
 IR Inten    --    144.3098               284.4084               264.6389
  Atom  AN      X      Y      Z        X      Y      Z        X      Y      Z
     1  80    -0.00   0.00   0.00    -0.02  -0.00   0.01    -0.02  -0.00   0.01
     2   8    -0.01   0.02   0.02    -0.00  -0.02   0.00     0.00  -0.01   0.00
     3   1    -0.24  -0.30   0.09     0.00   0.05  -0.01    -0.00   0.03  -0.01
     4   1     0.54  -0.12   0.05    -0.07  -0.05  -0.05    -0.03  -0.02  -0.02
     5   8    -0.01  -0.04  -0.00    -0.02   0.00  -0.01    -0.01   0.00  -0.00
     6   1     0.11   0.36  -0.07    -0.01   0.03  -0.01    -0.00   0.02  -0.01
     7   1    -0.01   0.45  -0.14    -0.01   0.04  -0.02    -0.00   0.02  -0.01
     8   8     0.01  -0.03   0.00     0.26   0.03  -0.10     0.14   0.02  -0.06
     9   1    -0.12   0.30  -0.20     0.02  -0.11  -0.02     0.01  -0.06  -0.01
    10   1     0.00   0.05  -0.09     0.20   0.00  -0.08     0.11   0.01  -0.05
    11   8    -0.00   0.00  -0.00    -0.00   0.07  -0.07    -0.05  -0.06   0.04
    12   1    -0.00  -0.01   0.01    -0.00  -0.42   0.48    -0.09   0.47  -0.48
    13   1    -0.00  -0.01   0.01    -0.05  -0.45   0.44     0.04   0.45  -0.41
    14   8     0.00   0.00  -0.00    -0.00   0.01  -0.00     0.01  -0.00   0.00
    15   1    -0.01  -0.00  -0.00     0.02   0.02   0.01    -0.10  -0.01  -0.01
    16   1    -0.01   0.00  -0.00    -0.00  -0.01   0.01    -0.08   0.01  -0.00
    17   8     0.01   0.00  -0.00     0.06  -0.01  -0.01     0.12   0.03  -0.02
    18   1     0.01   0.00  -0.00     0.12   0.06  -0.08     0.04  -0.04   0.08
    19   1     0.01  -0.00  -0.01    -0.01   0.03   0.07     0.18  -0.04  -0.21
                     28                     29                     30
                      A                      A                      A
 Frequencies --    691.5343               956.4857               989.1243
 Red. masses --      1.1778                 1.0714                 1.0885
 Frc consts  --      0.3319                 0.5775                 0.6275
 IR Inten    --    339.5010                37.5877                41.4689
  Atom  AN      X      Y      Z        X      Y      Z        X      Y      Z
     1  80     0.00   0.00  -0.00     0.00  -0.00   0.00    -0.00   0.00   0.00
     2   8     0.04   0.00  -0.01     0.00  -0.00  -0.00     0.02  -0.01  -0.02
     3   1     0.18   0.14  -0.07    -0.00  -0.01  -0.01    -0.00  -0.08  -0.09
     4   1    -0.45   0.15  -0.02    -0.01   0.01   0.01    -0.10   0.09   0.06
     5   8    -0.04  -0.08   0.04     0.00   0.00   0.00     0.00   0.01   0.01
     6   1     0.01   0.55  -0.22    -0.01  -0.00  -0.00    -0.04   0.01  -0.03
     7   1     0.16   0.44  -0.20     0.00  -0.01   0.00     0.04  -0.06   0.01
     8   8    -0.02   0.01  -0.00    -0.01  -0.00  -0.01    -0.04  -0.05  -0.02
     9   1     0.11  -0.21   0.19    -0.04   0.04   0.05    -0.26   0.26   0.33
    10   1    -0.04  -0.03   0.03     0.12   0.04  -0.03     0.77   0.25  -0.17
    11   8     0.00  -0.00   0.00     0.01   0.03  -0.01    -0.00  -0.00   0.00
    12   1     0.00   0.00  -0.00     0.06  -0.10   0.06    -0.01   0.01  -0.01
    13   1     0.00   0.00  -0.00    -0.08  -0.04  -0.01     0.01   0.01   0.00
    14   8    -0.00  -0.00   0.00    -0.00  -0.00   0.00    -0.00   0.00   0.00
    15   1     0.02  -0.00   0.00     0.01  -0.00  -0.00     0.01   0.00   0.00
    16   1     0.02  -0.00   0.00     0.02   0.00  -0.00     0.01  -0.00   0.00
    17   8    -0.00  -0.00   0.00    -0.04   0.04  -0.01     0.01  -0.01  -0.00
    18   1    -0.00  -0.00   0.00    -0.35  -0.32   0.10     0.05   0.04  -0.02
    19   1    -0.00  -0.00   0.00     0.83  -0.14  -0.12    -0.12   0.02   0.02
                     31                     32                     33
                      A                      A                      A
 Frequencies --   1231.8771              1371.1232              1482.0139
 Red. masses --      1.0503                 1.0562                 1.0740
 Frc consts  --      0.9390                 1.1699                 1.3898
 IR Inten    --    106.0283               189.9415               595.3182
  Atom  AN      X      Y      Z        X      Y      Z        X      Y      Z
     1  80    -0.00   0.00   0.00     0.00  -0.00   0.00     0.00   0.00  -0.00
     2   8    -0.01   0.00   0.02    -0.00   0.00   0.00     0.02  -0.03  -0.04
     3   1     0.06   0.31   0.26     0.00   0.00   0.00    -0.26   0.50   0.56
     4   1     0.13  -0.08  -0.03     0.00   0.00   0.00     0.14   0.10   0.19
     5   8    -0.01  -0.01  -0.02    -0.00  -0.00  -0.00    -0.01  -0.01  -0.03
     6   1     0.08  -0.02   0.07     0.00   0.00   0.00     0.16  -0.04   0.17
     7   1    -0.05   0.10  -0.03    -0.00  -0.00   0.00    -0.04   0.10  -0.04
     8   8    -0.04  -0.00   0.01    -0.00   0.00  -0.00     0.00  -0.00  -0.01
     9   1     0.34  -0.42  -0.47     0.00  -0.00  -0.00    -0.14   0.03   0.43
    10   1     0.50   0.14  -0.04     0.01   0.00   0.00    -0.12  -0.04   0.00
    11   8    -0.00   0.00   0.00     0.01  -0.02  -0.03    -0.00   0.00  -0.00
    12   1     0.00  -0.00  -0.00    -0.17   0.12   0.03    -0.00  -0.00   0.00
    13   1    -0.00   0.00  -0.00     0.10  -0.09   0.14     0.00   0.00   0.00
    14   8     0.00   0.00   0.00     0.00  -0.00  -0.00    -0.00  -0.00  -0.00
    15   1    -0.01   0.00  -0.00     0.00   0.01   0.01     0.01   0.00  -0.00
    16   1    -0.01   0.00  -0.00    -0.01  -0.01   0.00     0.01  -0.00   0.00
    17   8    -0.00  -0.00  -0.00    -0.00   0.00  -0.04     0.00  -0.00   0.00
    18   1     0.01  -0.00  -0.01    -0.22   0.27   0.89    -0.01   0.00  -0.00
    19   1    -0.00   0.00   0.00    -0.05   0.05   0.04    -0.00  -0.00   0.00
                     34                     35                     36
                      A                      A                      A
 Frequencies --   1617.0429              1710.3009              1721.9017
 Red. masses --      1.0802                 1.0950                 1.0884
[...]
 .01831611,0.01265567,-0.03206002,0.01868775,-0.00146573,-0.00092588,0.
 00052292,0.09589856,0.43056847,0.00112113,0.00051163,-0.00105887,-0.04
 047678,-0.01565829,-0.01143483,0.01978128,0.01458054,-0.02657364,-0.00
 038203,0.00117529,0.00212297,0.05179782,-0.30664771,0.35903181,-0.0003
 4893,-0.00024500,0.00005505,-0.00076996,0.00006337,-0.00353199,-0.0007
 9602,-0.00292785,0.01049495,-0.00089578,-0.00085092,-0.00031711,-0.266
 15409,-0.21194127,0.12263045,0.25710073,-0.00010862,0.00015422,0.00006
 723,0.00238152,0.00027427,0.00031065,-0.00579418,-0.00140071,0.0011176
 4,-0.00092175,-0.00010083,-0.00045656,-0.16296555,-0.18984538,0.121740
 31,0.19616764,0.20576740,0.00000944,-0.00001933,0.00014893,-0.00517607
 ,-0.00150301,-0.00654654,0.00192451,-0.00344628,0.01372718,-0.00146935
 ,-0.00094700,-0.00039222,0.09191533,0.12142907,-0.10969982,-0.11409584
 ,-0.13860256,0.11115895,-0.00027544,0.00003496,-0.00014782,-0.00293244
 ,-0.00373466,-0.00136463,0.00286148,0.01247096,-0.00280250,-0.00021175
 ,-0.00009960,-0.00007490,-0.14590797,0.12971508,-0.15672373,0.01213048
 ,-0.02825616,0.02746384,0.13407109,0.00015084,0.00024167,0.00000512,-0
 .00534686,-0.00515978,-0.00234180,0.00426148,0.01077833,-0.00166352,-0
 .00031494,0.00058165,-0.00028913,0.09163705,-0.20863910,0.18946754,0.0
 2005011,-0.01536777,0.02332233,-0.11025884,0.21761918,-0.00024710,-0.0
 0012385,0.00029433,0.00172873,-0.00150107,-0.00011728,-0.00507689,0.00
 681694,-0.00332967,-0.00089237,0.00007934,-0.00045887,-0.11365573,0.18
 703192,-0.20998633,-0.01513553,0.01587885,-0.00831868,0.13395172,-0.20
 848775,0.22169869,-0.17497810,-0.00914371,0.06942831,-0.04289728,0.026
 93470,-0.00357258,0.00797683,0.00542868,0.00787685,-0.00237160,-0.0010
 3703,-0.00300800,-0.00397323,-0.00249475,-0.00415773,0.00037783,0.0005
 2581,0.00008818,-0.00000728,-0.00018004,0.00085268,0.23575449,-0.04437
 118,-0.02768093,0.02345637,0.02479611,-0.00180594,0.00138904,-0.001795
 90,-0.00391008,-0.00330205,0.00056193,-0.00094587,0.00057822,0.0012726
 8,0.00188758,0.00160637,0.00031426,-0.00048200,0.00010593,0.00000337,-
 0.00013788,-0.00019422,0.05707011,0.51539818,0.06749946,0.00743788,-0.
 04350819,0.00064139,-0.00021762,0.00980340,0.00016940,-0.00104117,-0.0
 0163751,-0.00261034,0.00147034,-0.00094151,-0.00014488,0.00048194,0.00
 091280,0.00008471,-0.00005658,-0.00023682,0.00027814,-0.00008046,-0.00
 019118,-0.07928544,-0.11231870,0.07196939,-0.00915657,-0.00787459,0.00
 428446,-0.19419291,0.08577118,0.00529704,-0.02073559,0.00225311,-0.011
 93484,0.00067211,0.00634491,-0.00025412,0.00561574,0.00369153,0.007044
 32,-0.00043229,-0.00125281,-0.00056546,0.00021148,-0.00002290,-0.00158
 772,0.00661177,-0.00650495,0.00163371,0.19659313,0.00111881,0.00851855
 ,-0.00244440,0.09704371,-0.10206926,-0.02592957,-0.00261961,0.01811943
 ,0.01288790,0.00808622,-0.00146119,0.00332506,-0.00569225,-0.00635686,
 -0.00677622,-0.00067822,0.00095247,-0.00035239,0.00012330,0.00011853,0
 .00050362,-0.02234386,-0.01805460,0.00085128,-0.07992714,0.10620250,0.
 00325606,-0.00207312,0.00009962,-0.03016245,-0.00534665,-0.07282178,-0
 .00640468,0.01324965,0.00882997,0.03813431,-0.02227688,0.00148450,-0.0
 0168362,-0.00257305,-0.00323088,-0.00000687,-0.00004217,-0.00001050,-0
 .00046652,-0.00001694,0.00039330,0.00040835,0.00387723,-0.01685294,-0.
 00204189,0.01480204,0.08027726,-0.01332490,-0.02132932,0.01082268,-0.0
 0770175,0.00033286,0.00007555,0.00000016,0.00151804,0.00042099,-0.0000
 8731,0.00077448,-0.00002732,-0.00012585,-0.00072811,-0.00014375,-0.000
 31003,0.00019633,-0.00011610,0.00003153,0.00009159,-0.00005035,-0.0324
 0677,-0.03187241,0.01084187,0.01107032,0.00678404,-0.00146743,0.043509
 64,0.00358284,-0.00380801,-0.00155557,0.00235808,0.00065425,0.00019891
 ,-0.00006214,-0.00064849,-0.00042071,0.00009679,-0.00027487,0.00034180
 ,0.00020916,0.00007764,0.00023793,-0.00004366,0.00006473,0.00000864,-0
 .00000731,0.00003638,-0.00005172,-0.04557148,-0.46816825,0.09981132,-0
 .00600494,-0.00288939,-0.00001984,0.04372479,0.47365551,0.00589447,0.0
 1042794,-0.00083039,0.00044159,-0.00045492,-0.00039733,-0.00030969,0.0
 0044495,0.00044687,0.00010073,-0.00044177,0.00042264,0.00032892,-0.000
 34673,-0.00027112,-0.00015370,0.00008547,0.00016416,-0.00009277,0.0000
 9302,0.00004724,0.01440186,0.08721878,-0.02641000,-0.00082669,0.002583
 56,0.00187774,-0.01995816,-0.09830186,0.02427703,0.00648424,-0.0004828
 9,-0.00495962,-0.00136614,0.00045076,-0.00019104,0.00074040,0.00024856
 ,0.00045601,0.00015909,-0.00012596,-0.00012923,-0.00040936,-0.00012505
 ,-0.00022704,0.00008681,0.00002874,-0.00000644,0.00008288,-0.00002621,
 0.00003904,-0.00195839,0.00007796,0.00089733,0.00176257,-0.00092512,0.
 00006720,0.00007509,0.00052806,-0.00012305,0.46856003,0.00218779,-0.00
 195210,-0.00199630,-0.00035081,0.00028106,-0.00003643,0.00012596,0.000
 00333,0.00007688,-0.00000032,-0.00010787,-0.00003832,-0.00008660,0.000
 02697,-0.00002800,0.00002914,-0.00002103,-0.00000605,0.00001531,-0.000
 03091,0.00000326,-0.00056332,0.00022056,0.00025927,0.00055880,-0.00041
 021,0.00002296,0.00009175,0.00012707,-0.00000874,-0.01250289,0.6631839
 5,0.00352387,-0.00192938,-0.00659065,-0.00080926,0.00037928,-0.0000288
 6,0.00035350,0.00010808,0.00016197,0.00004292,-0.00012155,-0.00013591,
 -0.00023591,-0.00003329,-0.00004396,0.00005382,0.00000729,-0.00003384,
 0.00006843,-0.00002450,-0.00001666,-0.00129815,0.00030058,0.00115197,0
 .00116887,-0.00068967,0.00000577,-0.00002691,0.00038535,-0.00021321,0.
 04207206,-0.14540888,0.09644902,-0.00066175,0.00046398,-0.00031768,0.0
 0022306,-0.00007580,0.00004469,-0.00012981,-0.00003987,-0.00008831,-0.
 00003037,0.00002298,0.00001183,0.00007070,0.00001807,0.00004681,-0.000
 01730,-0.00000167,-0.00000263,-0.00001239,0.00000578,-0.00001063,0.000
 30511,-0.00004705,0.00003149,-0.00027947,0.00014940,-0.00001411,-0.000
 06280,-0.00005197,-0.00001127,-0.24887302,0.23148173,-0.06783248,0.239
 53949,0.00033083,0.00047961,-0.00041322,-0.00007852,-0.00002727,-0.000
 01004,0.00006029,0.00003768,0.00003439,0.00001891,0.00001956,-0.000007
 77,-0.00002639,-0.00003354,-0.00001953,-0.00000063,0.00001638,0.,0.000
 00653,0.00000997,0.00000221,-0.00011617,-0.00007228,0.00010914,0.00007
 140,-0.00000545,0.00000064,-0.00004243,0.00006406,-0.00001551,0.176867
 73,-0.28303941,0.06396418,-0.21298060,0.30836651,-0.00058589,0.0000080
 7,0.00073742,0.00006628,-0.00002812,-0.00003159,-0.00001508,-0.0000069
 7,0.00001801,0.00000243,0.00000710,0.00003360,0.00002238,-0.00000247,-
 0.00002704,-0.00000561,-0.00000084,0.00001549,-0.00001491,0.00000218,0
 .00001652,0.00012251,0.00002046,-0.00019178,-0.00011307,0.00005501,0.0
 0002575,0.00004320,-0.00004396,0.00007634,-0.04540987,0.05555325,-0.02
 931134,0.05927359,-0.07155700,0.02413431,-0.00017666,-0.00089953,-0.00
 029665,0.00018081,0.00002171,0.00003351,-0.00013541,-0.00005960,-0.000
 08432,-0.00004473,-0.00001561,0.00001289,0.00006903,0.00003947,0.00004
 572,-0.00001210,-0.00001268,-0.00000145,-0.00001600,-0.00000501,-0.000
 00885,0.00014942,0.00011660,0.00001050,-0.00017361,0.00003424,-0.00000
 071,0.00000894,-0.00004999,0.00000780,-0.17150102,-0.21370667,0.042413
 09,0.01263712,0.03673444,-0.00800808,0.16031386,-0.00080834,0.00081941
 ,0.00062718,0.00017676,-0.00014541,0.00002005,-0.00006264,0.00000233,-
 0.00003844,-0.00000204,0.00005627,0.00001604,0.00004247,-0.00001847,0.
 00001301,-0.00001456,0.00001294,0.00000314,-0.00000650,0.00001824,-0.0
 0000117,0.00031614,-0.00013545,-0.00012823,-0.00028330,0.00020380,-0.0
 0001401,-0.00004634,-0.00006234,0.00001694,-0.15563623,-0.35087793,0.0
 8201941,-0.02707759,-0.03089637,0.01083882,0.18593630,0.38178558,-0.00
 023418,0.00043679,0.00043748,0.00001273,-0.00003869,-0.00004071,0.0000
 2123,0.00001087,0.00004001,0.00001569,0.00001899,0.00002737,0.00000347
 ,-0.00001378,-0.00003764,-0.00000343,0.00000405,0.00001350,-0.00001160
 ,0.00000321,0.00001872,0.00006696,-0.00009077,-0.00010026,-0.00005862,
 0.00004988,0.00002399,-0.00000102,-0.00002065,0.00004657,0.03555534,0.
 09252365,-0.03922899,0.00795519,0.00829389,0.00520243,-0.03897407,-0.0
 9337910,0.03072013,-0.00818864,0.00069464,0.00112061,-0.00143766,-0.00
 107302,-0.00042346,0.00127943,0.00058903,0.00088511,0.00066667,0.00041
 224,-0.00017400,-0.00061606,-0.00039245,-0.00049615,0.00005953,0.00011
 865,0.00000672,0.00009209,0.00003932,0.00011004,0.00012947,-0.00249271
 ,0.00004130,0.00082968,0.00114422,0.00001274,-0.00038819,-0.00012308,-
 0.00014105,-0.00035857,0.00267765,0.00134151,-0.00014310,-0.00040336,0
 .00023224,0.00166417,-0.00090059,-0.00070416,0.02746995,-0.00292013,-0
 .01180481,-0.00062850,-0.00148280,0.00129416,-0.00021994,0.00055356,0.
 00002274,0.00038697,0.00002712,-0.00045360,-0.00008187,-0.00033171,0.0
 0005646,-0.00018418,0.00009720,-0.00005181,-0.00000040,0.00002473,-0.0
 0010320,0.00003047,-0.00423724,-0.00238787,0.00098229,0.00243079,-0.00
 180718,0.00008165,-0.00078109,0.00051785,-0.00044674,0.00112316,0.0008
 2021,0.00067794,-0.00008882,-0.00008185,-0.00006386,0.00034904,-0.0006
 2804,-0.00012931,-0.02477430,0.46517843,-0.00096378,-0.00053830,-0.009
 09807,-0.00012690,0.00008808,0.00032206,-0.00001777,0.00000282,-0.0001
 7278,-0.00016136,-0.00011354,-0.00018592,-0.00004104,0.00001419,0.0001
 3385,0.00001665,-0.00000363,-0.00004418,0.00007087,0.00000981,-0.00005
 837,-0.00021327,-0.00065849,0.00144975,0.00025856,-0.00016994,-0.00036
 261,-0.00020795,0.00029095,0.00005037,0.00050523,0.00038929,0.00189199
 ,0.00009784,0.00000258,-0.00032724,-0.00010370,-0.00007412,-0.00066542
 ,-0.02936916,-0.08222667,0.64578688,0.00236201,-0.00062946,-0.00148626
 ,0.00050512,0.00065514,0.00037248,-0.00060449,-0.00028824,-0.00047326,
 -0.00043179,-0.00031843,-0.00003955,0.00026972,0.00020484,0.00027352,-
 0.00001890,-0.00006601,-0.00001623,-0.00002319,-0.00002364,-0.00006691
 ,-0.00064295,0.00057747,0.00068561,-0.00004198,-0.00070606,-0.00022227
 ,-0.00004478,0.00010936,0.00009057,0.00001580,-0.00089045,-0.00115843,
 -0.00005472,0.00016569,0.00007811,-0.00048131,0.00033105,0.00059486,-0
 .01308520,0.00896829,0.04012687,0.00411028,0.00054200,0.00112626,-0.00
 347681,0.00034299,-0.00014666,0.00017473,-0.00021703,-0.00004300,-0.00
 018646,-0.00013428,0.00009493,-0.00004615,0.00010728,0.00001194,0.0000
 9781,-0.00002139,0.00000813,-0.00001068,0.00000002,0.00002708,-0.00001
 887,-0.00003986,-0.00021396,0.00091281,-0.00045849,0.00011979,-0.00017
 215,-0.00019591,-0.00001437,-0.00004769,-0.00004265,0.00001575,0.00062
 832,0.00009934,0.00001638,-0.00013489,0.00002491,0.00010320,-0.0001268
 0,0.01256422,-0.08316121,-0.14729654,-0.01064459,0.07814266,0.00023158
 ,-0.00145416,0.00006416,0.00026504,0.00018149,-0.00005100,-0.00016594,
 -0.00009579,-0.00006391,-0.00005606,-0.00006038,0.00013909,0.00009385,
 0.00006016,0.00001834,-0.00000913,-0.00001889,0.00002117,-0.00003449,-
 0.00001581,0.00000805,0.00014127,0.00034755,-0.00034222,-0.00022895,-0
 .00016356,0.00011380,0.00006617,0.00004682,0.00010119,-0.00016342,0.00
 016896,-0.00027649,-0.00003810,-0.00001646,0.00014438,0.00016900,-0.00
 012178,0.00006723,0.03315056,-0.08133522,-0.45812116,-0.03787132,0.100
 93128,0.48831674,0.00241862,-0.00146444,-0.00032094,0.00034995,0.00078
 459,0.00001707,-0.00048255,-0.00029393,-0.00028066,-0.00022575,-0.0002
 8447,0.00011714,0.00022851,0.00021080,0.00016526,-0.00001339,-0.000072
 29,0.00000184,-0.00006296,-0.00005629,-0.00003787,-0.00071707,0.000248
 72,-0.00002207,0.00017656,-0.00078486,0.00016072,-0.00007433,0.0000503
 7,-0.00002977,-0.00013552,-0.00093223,-0.00006302,0.00003200,0.0001420
 4,-0.00011605,-0.00074202,0.00059207,0.00003629,-0.00962077,0.01875971
 ,-0.01080795,0.00794025,-0.00270073,0.00444492,0.00151869,-0.00004249,
 -0.00193799,0.00199620,0.00025181,0.00010315,0.00003216,-0.00020771,-0
 .00007330,-0.00011900,-0.00009643,0.00000099,0.00002316,0.00010920,0.0
 0003510,0.00005368,-0.00001409,-0.00000436,0.00000427,-0.00002365,0.00
 001312,-0.00000475,-0.00037919,-0.00005665,-0.00000309,-0.00020091,-0.
 00018894,0.00005563,-0.00011630,0.00000699,-0.00009033,-0.00018033,0.0
 0015375,-0.00019324,-0.00000695,-0.00002366,0.00005152,0.00023159,-0.0
 0000838,0.00002662,0.01240044,-0.36570961,0.23353890,0.00193538,0.0048
 8843,-0.01849386,-0.01447876,0.36261563,-0.00035477,-0.00030999,0.0032
 0993,-0.00023136,0.00002357,-0.00023316,0.00015406,0.00003515,0.000206
 89,0.00010520,0.00007009,0.00006105,-0.00005095,-0.00002125,-0.0001382
 9,0.00000475,0.00000157,0.00002529,-0.00003851,-0.00001820,0.00005367,
 -0.00065374,-0.00048056,-0.00014474,0.00022924,-0.00007994,0.00015422,
 -0.00011563,-0.00004938,-0.00003986,0.00000564,-0.00009773,-0.00048880
 ,-0.00002076,-0.00000267,0.00008577,0.00001639,0.00002088,0.00033433,-
 0.00419512,0.16695627,-0.17747601,-0.00204655,0.05011530,-0.03033054,0
 .00626957,-0.21640929,0.20531882,-0.13064703,-0.03272480,0.04364712,-0
 .00371785,0.00144049,-0.00068241,0.00188057,0.00066484,0.00127292,0.00
 034086,-0.00044816,-0.00035688,-0.00102189,-0.00032856,-0.00064950,0.0
 0019775,0.00007543,-0.00000254,0.00016222,-0.00007588,0.00012626,0.002
 94877,0.00331807,0.00214484,0.00514303,-0.00279523,0.00047583,0.000342
 74,0.00234877,-0.00015361,-0.04872814,-0.01499039,-0.04018341,-0.00178
 216,-0.00597975,-0.00105830,-0.00321388,0.00469316,-0.00339091,0.00327
 121,0.00416517,0.00253902,-0.00092398,0.00085928,-0.00020458,-0.001216
 01,0.00024720,0.00044868,0.36318827,-0.00574494,-0.02074880,-0.0052942
 5,-0.00134932,0.00087173,-0.00033083,0.00043200,0.00014590,0.00038702,
 0.00001594,-0.00024216,-0.00010843,-0.00025204,-0.00002152,-0.00019093
 ,0.00005978,-0.00002106,0.00000236,0.00000675,-0.00005930,0.00004309,-
 0.00439849,0.00646637,0.00243854,0.00205980,-0.00143633,0.00041880,0.0
 0171169,0.00078446,-0.00075500,-0.01365920,0.01159917,-0.00901131,-0.0
 0335514,-0.00280178,-0.00210451,0.00118401,-0.00010643,0.00134541,0.00
 228408,-0.00077646,-0.00311175,0.00006287,-0.00096691,0.00014461,-0.00
 089884,0.00045720,0.00053299,-0.02389374,0.26827793,0.05419889,0.00800
 915,-0.05117238,0.00074314,-0.00029443,0.00018291,-0.00034139,-0.00017
 478,-0.00041515,-0.00001884,-0.00002692,0.00002326,0.00011235,0.000114
 10,0.00028536,0.00000044,-0.00002148,-0.00004927,0.00005522,-0.0000048
 5,-0.00010063,-0.00223598,-0.00145843,0.00703580,-0.00091694,0.0006444
 7,-0.00001066,-0.00032507,-0.00028085,0.00050403,-0.03505051,-0.008091
 56,-0.01046795,-0.00219083,-0.00326705,-0.00193711,-0.00361439,0.00190
 189,-0.00399309,0.00174134,-0.00315102,-0.00121488,-0.00015308,-0.0006
 7914,0.00003659,-0.00013321,-0.00058506,-0.00118858,-0.02795438,0.2589
 7936,0.41183537,-0.01919186,0.00113724,0.00667445,0.00253359,-0.000950
 98,0.00029096,-0.00129565,-0.00041344,-0.00076825,-0.00024648,0.000271
 19,0.00026592,0.00074353,0.00019212,0.00036545,-0.00015903,-0.00004369
 ,0.00002547,-0.00015629,0.00005822,-0.00005368,0.00448824,-0.00034856,
 -0.00156990,-0.00335838,0.00181212,-0.00005225,-0.00019375,-0.00096433
 ,0.00038967,0.00176199,0.00556103,0.02174922,0.00034519,0.00582869,-0.
 00300031,0.00173006,-0.00681867,-0.00031170,-0.00134863,-0.00245188,-0
 .00227281,0.00111909,-0.00040286,0.00022080,0.00060198,0.00044307,0.00
 032326,-0.11508974,-0.01658397,-0.05070338,0.10989716,-0.00552167,0.00
 286843,0.00422312,0.00068335,-0.00039851,0.00007338,-0.00030114,-0.000
 06402,-0.00018368,-0.00003200,0.00013561,0.00007082,0.00018821,0.00000
 536,0.00008245,-0.00004896,0.00001136,0.00000762,-0.00003480,0.0000359
 2,-0.00001336,0.00109242,0.00007331,-0.00048986,-0.00101643,0.00064323
 ,0.00001431,-0.00007425,-0.00026414,-0.00004127,0.00479105,-0.04036751
 ,0.00816987,0.01127213,0.00779187,0.00758324,-0.00989511,-0.00015653,-
 0.00828935,-0.00305753,-0.00120604,0.00021798,0.00051549,0.00003710,-0
 .00015687,0.00128584,-0.00040687,-0.00022839,0.01390062,-0.04402121,-0
 .01124707,0.00588038,0.07820098,0.00339338,0.00674426,0.01364686,0.001
 72156,-0.00075639,0.00020079,-0.00081376,-0.00025417,-0.00046463,-0.00
 013546,0.00023767,0.00020259,0.00049023,0.00010477,0.00020849,-0.00010
 847,-0.00002315,0.00002815,-0.00011057,0.00004593,-0.00002051,0.002764
 43,-0.00085445,-0.00255834,-0.00238925,0.00142471,-0.00014908,-0.00004
 222,-0.00077432,0.00022297,0.00814465,0.00466491,-0.01306297,0.0041515
 9,0.00359691,0.00201743,0.00847503,-0.00157511,0.00688213,-0.00319766,
 -0.00105027,-0.00222178,0.00132154,-0.00067925,0.00007400,0.00054996,0
 .00020418,0.00054993,-0.02486932,-0.02895374,-0.08550402,0.01889527,0.
 01902785,0.09071963,-0.00671896,0.00907093,0.01429654,0.00023937,-0.00
 011480,0.00000645,-0.00011743,-0.00002356,-0.00002400,-0.00002183,0.00
 005319,0.00003682,0.00009124,-0.00000466,-0.00001504,-0.00002530,0.000
 00129,0.00001678,-0.00003751,0.00001620,0.00001517,0.00121075,-0.00092
 452,-0.00132712,-0.00031559,0.00017630,0.00000761,-0.00031798,-0.00012
 930,0.00014412,-0.00639874,0.00129452,-0.00117971,-0.00110577,-0.00059
 870,-0.00151356,-0.00025667,-0.00043112,-0.00057209,-0.00027539,0.0005
 6920,0.00067063,0.00003101,0.00031776,-0.00001121,0.00002381,0.0001281
 4,0.00015061,-0.07113474,0.06231877,0.06678661,0.01781897,-0.01962759,
 -0.01824093,0.06731077,-0.00453318,0.00176190,0.00506020,-0.00031302,0
 .00005541,-0.00001499,0.00017733,0.00009224,0.00010401,0.00003566,0.00
 000078,-0.00003059,-0.00008193,-0.00007768,-0.00006169,0.00000505,0.00
 003305,0.00000433,0.00002051,0.00001785,0.00000707,-0.00086272,0.00000
 577,-0.00041907,0.00036494,-0.00019889,0.00001189,-0.00003942,0.000140
 91,0.00007989,-0.00040948,0.00037516,0.00077151,0.00021205,0.00017960,
 -0.00017704,-0.00002810,0.00003359,-0.00062490,0.00029257,0.00028185,-
 0.00036163,0.00004131,-0.00004553,0.00005192,-0.00010730,0.00013540,-0
 .00005843,0.04952347,-0.21740082,-0.24036634,0.00779431,-0.00291834,-0
 .00113034,-0.05209204,0.21752773,0.00439003,-0.00585369,-0.00349476,-0
 .00075119,0.00027822,-0.00020596,0.00037947,0.00014012,0.00032397,0.00
 007645,-0.00006650,-0.00003097,-0.00017543,-0.00007856,-0.00021121,0.0
 0002688,0.00001280,0.00002904,-0.00000526,-0.00000617,0.00006767,-0.00
 172650,0.00045712,0.00079238,0.00100136,-0.00052183,0.00015255,0.00021
 143,0.00019713,-0.00007523,-0.00148226,0.00204959,0.00023891,-0.001086
 24,-0.00069469,-0.00068133,-0.00009171,-0.00014542,0.00025221,0.000058
 58,0.00040239,0.00031351,-0.00000969,0.00001518,0.00008058,0.00004878,
 -0.00008769,0.00004008,0.04885118,-0.21443143,-0.26384960,0.00953183,-
 0.01882077,-0.01077164,-0.05924769,0.23715420,0.27702979\\-0.00796094,
 -0.01803428,-0.00066658,0.00664920,0.02170958,-0.00943639,-0.00951543,
 -0.00595018,0.00648078,0.00019334,-0.01076835,-0.00307284,0.01202649,-
 0.00725307,-0.00872417,-0.00057675,0.01151594,-0.00204243,-0.00445442,
 -0.00418757,0.01040761,0.00818014,0.00177851,0.00123954,-0.00391373,-0
 .00775587,0.00555108,0.00639017,0.00947486,-0.00627437,-0.00983990,0.0
 0359239,0.01141106,0.00005903,0.00873660,-0.00822234,0.00310882,-0.011
 64501,-0.00272399,0.00567078,0.00290192,0.00086124,-0.00135527,0.00543
 583,-0.01174216,-0.00233573,-0.00359826,0.01246478,-0.00927712,0.01338
 988,-0.00651858,0.00839864,-0.00847245,-0.00049569,-0.00144732,-0.0008
 7046,0.01150346\\\@


 CHARLIE BROWN.."I CAN'T GET THAT STUPID KITE IN THE
 AIR... I CAN'T... I C A N N O T..."
 LUCY.."OH COME NOW CHARLIE BROWN...THAT'S NO WAY TO TALK...
 THE TROUBLE WITH YOU IS YOU DON'T BELIEVE IN YOURSELF... YOU
 DON'T BELIEVE IN YOUR OWN ABILITIES...  YOU'VE GOT TO SAY TO
 YOURSELF...'I BELIEVE I CAN FLY THIS KITE.'... GO AHEAD SAY
 IT...."
 CHARLIE BROWN.."I BELIEVE THAT I CAN FLY THIS STUPID
 KITE.....I BELIEVE THAT I CAN FLY THIS KITE........
 I  A C T U A L L Y  B E L I E V E  T H A T  I  C A N ******"
 LUCY.."I'LL BET YOU TEN-TO-ONE YOU'RE WRONG......."    SCHULZ
 Job cpu time:       0 days  0 hours 49 minutes 51.1 seconds.
 Elapsed time:       0 days  0 hours  1 minutes 48.0 seconds.
 File lengths (MBytes):  RWF=   2793 Int=      0 D2E=      0 Chk=      3 Scr=      1
 Normal termination of Gaussian 16 at Wed May 11 21:49:19 2022.
