 Entering Gaussian System, Link 0=g16
 Initial command:
 /cm/shared/apps/gaussian/intel/EM64T/SSE4_2-enabled/binary//g16/l1.exe "/scratch/florez/25750/Gau-23324.inp" -scrdir="/scratch/florez/25750/"
 Entering Link 1 = /cm/shared/apps/gaussian/intel/EM64T/SSE4_2-enabled/binary//g16/l1.exe PID=     23327.
  
 Copyright (c) 1988,1990,1992,1993,1995,1998,2003,2009,2016,
            Gaussian, Inc.  All Rights Reserved.
  
 This is part of the Gaussian(R) 16 program.  It is based on
 the Gaussian(R) 09 system (copyright 2009, Gaussian, Inc.),
 the Gaussian(R) 03 system (copyright 2003, Gaussian, Inc.),
 the Gaussian(R) 98 system (copyright 1998, Gaussian, Inc.),
 the Gaussian(R) 94 system (copyright 1995, Gaussian, Inc.),
 the Gaussian 92(TM) system (copyright 1992, Gaussian, Inc.),
 the Gaussian 90(TM) system (copyright 1990, Gaussian, Inc.),
 the Gaussian 88(TM) system (copyright 1988, Gaussian, Inc.),
 the Gaussian 86(TM) system (copyright 1986, Carnegie Mellon
 University), and the Gaussian 82(TM) system (copyright 1983,
 Carnegie Mellon University). Gaussian is a federally registered
 trademark of Gaussian, Inc.
  
 This software contains proprietary and confidential information,
 including trade secrets, belonging to Gaussian, Inc.
  
 This software is provided under written license and may be
 used, copied, transmitted, or stored only in accord with that
 written license.
  
 The following legend is applicable only to US Government
 contracts under FAR:
  
                    RESTRICTED RIGHTS LEGEND
  
 Use, reproduction and disclosure by the US Government is
 subject to restrictions as set forth in subparagraphs (a)
 and (c) of the Commercial Computer Software - Restricted
 Rights clause in FAR 52.227-19.
  
 Gaussian, Inc.
 340 Quinnipiac St., Bldg. 40, Wallingford CT 06492
  
  
 ---------------------------------------------------------------
 Warning -- This program may not be used in any manner that
 competes with the business of Gaussian, Inc. or will provide
 assistance to any competitor of Gaussian, Inc.  The licensee
 of this program is prohibited from giving any competitor of
 Gaussian, Inc. access to this program.  By using this program,
 the user acknowledges that Gaussian, Inc. is engaged in the
 business of creating and licensing software in the field of
 computational chemistry and represents and warrants to the
 licensee that it is not a competitor of Gaussian, Inc. and that
 it will not use this program in any manner prohibited above.
 ---------------------------------------------------------------
  

 Cite this work as:
 Gaussian 16, Revision A.03,
 M. J. Frisch, G. W. Trucks, H. B. Schlegel, G. E. Scuseria, 
 M. A. Robb, J. R. Cheeseman, G. Scalmani, V. Barone, 
 G. A. Petersson, H. Nakatsuji, X. Li, M. Caricato, A. V. Marenich, 
 J. Bloino, B. G. Janesko, R. Gomperts, B. Mennucci, H. P. Hratchian, 
 J. V. Ortiz, A. F. Izmaylov, J. L. Sonnenberg, D. Williams-Young, 
 F. Ding, F. Lipparini, F. Egidi, J. Goings, B. Peng, A. Petrone, 
 T. Henderson, D. Ranasinghe, V. G. Zakrzewski, J. Gao, N. Rega, 
 G. Zheng, W. Liang, M. Hada, M. Ehara, K. Toyota, R. Fukuda, 
 J. Hasegawa, M. Ishida, T. Nakajima, Y. Honda, O. Kitao, H. Nakai, 
 T. Vreven, K. Throssell, J. A. Montgomery, Jr., J. E. Peralta, 
 F. Ogliaro, M. J. Bearpark, J. J. Heyd, E. N. Brothers, K. N. Kudin, 
 V. N. Staroverov, T. A. Keith, R. Kobayashi, J. Normand, 
 K. Raghavachari, A. P. Rendell, J. C. Burant, S. S. Iyengar, 
 J. Tomasi, M. Cossi, J. M. Millam, M. Klene, C. Adamo, R. Cammi, 
 J. W. Ochterski, R. L. Martin, K. Morokuma, O. Farkas, 
 J. B. Foresman, and D. J. Fox, Gaussian, Inc., Wallingford CT, 2016.
 
 ******************************************
 Gaussian 16:  ES64L-G16RevA.03 25-Dec-2016
                11-May-2022 
 ******************************************
 %chk=w6s9.chk
 %nproc=28
 Will use up to   28 processors via shared memory.
 %mem=500gb
 ------------------------
 #p MP2(full) SDDAll freq
 ------------------------
 1/10=4,30=1,38=1/1,3;
 2/12=2,17=6,18=5,40=1/2;
 3/5=17,6=6,11=9,25=1,30=1,71=2,140=1/1,2,3;
 4//1;
 5/5=2,38=5,98=1/2;
 8/6=3,8=1,10=90,19=11/1;
 9/15=3,16=-3/6;
 11/6=1,8=1,15=11,17=11,24=-1,27=1,28=-2,29=300,32=6,42=3/1,2,10;
 10/6=2,21=1/2;
 8/6=4,8=1,10=90,19=11/11,4;
 10/5=1,20=4/2;
 11/12=2,14=11,16=1,28=-2,42=3/2,10,12;
 6/7=2,8=2,9=2,10=2/1;
 7/8=1,10=1,12=2,25=1,44=2/1,2,3,16;
 1/10=4,30=1/3;
 99//99;
 Leave Link    1 at Wed May 11 21:53:01 2022, MaxMem= 67108864000 cpu:               1.1 elap:               0.0
 (Enter /cm/shared/apps/gaussian/intel/EM64T/SSE4_2-enabled/binary//g16/l101.exe)
 ----------------------------------------------------------------------
 file 'w6s9.log' Now we use Def2-QZVPPD, but it was opt at: ---'ZORA-SR
 +SO PBE QZ4P'---
 ----------------------------------------------------------------------
 Symbolic Z-matrix:
 Charge =  2 Multiplicity = 1
 Hg(Fragment=1)       -0.11392   0.19285  -0.08224 
 O(Fragment=2)         2.91981   2.46609   0.32 
 H(Fragment=2)         3.26289   2.87423   1.13431 
 H(Fragment=2)         3.54062   2.70902  -0.38849 
 O(Fragment=2)         3.14781  -1.85165   0.04689 
 H(Fragment=2)         3.72605  -1.95092  -0.72932 
 H(Fragment=2)         3.62447  -2.2564    0.79276 
 O(Fragment=2)        -2.02736   0.31466  -0.82066 
 H(Fragment=2)        -2.91347   0.40405  -0.15764 
 H(Fragment=2)        -2.12044   0.9001   -1.59479 
 O(Fragment=2)        -1.00174  -1.75773   1.2863 
 H(Fragment=2)        -0.84954  -1.86746   2.24077 
 H(Fragment=2)        -1.11345  -2.65925   0.93829 
 O(Fragment=2)        -3.97245   0.44151   0.66879 
 H(Fragment=2)        -4.63892  -0.26039   0.55291 
 H(Fragment=2)        -4.45983   1.27954   0.77009 
 O(Fragment=2)         1.81181   0.22074   0.54087 
 H(Fragment=2)         2.32101   1.13332   0.4076 
 H(Fragment=2)         2.39991  -0.61871   0.29497 
 
 ITRead=  0  0  0  0  0  0  0  0  0  0  0  0  0  0  0  0  0  0  0
 MicOpt= -1 -1 -1 -1 -1 -1 -1 -1 -1 -1 -1 -1 -1 -1 -1 -1 -1 -1 -1
 NAtoms=     19 NQM=       19 NQMF=       0 NMMI=      0 NMMIF=      0
                NMic=       0 NMicF=      0.
                    Isotopes and Nuclear Properties:
 (Nuclear quadrupole moments (NQMom) in fm**2, nuclear magnetic moments (NMagM)
  in nuclear magnetons)

  Atom         1           2           3           4           5           6           7           8           9          10
 IAtWgt=         202          16           1           1          16           1           1          16           1           1
 AtmWgt= 201.9706000  15.9949146   1.0078250   1.0078250  15.9949146   1.0078250   1.0078250  15.9949146   1.0078250   1.0078250
 NucSpn=           0           0           1           1           0           1           1           0           1           1
 AtZEff=  -0.0000000  -0.0000000  -0.0000000  -0.0000000  -0.0000000  -0.0000000  -0.0000000  -0.0000000  -0.0000000  -0.0000000
 NQMom=    0.0000000   0.0000000   0.0000000   0.0000000   0.0000000   0.0000000   0.0000000   0.0000000   0.0000000   0.0000000
 NMagM=    0.0000000   0.0000000   2.7928460   2.7928460   0.0000000   2.7928460   2.7928460   0.0000000   2.7928460   2.7928460
 AtZNuc=  80.0000000   8.0000000   1.0000000   1.0000000   8.0000000   1.0000000   1.0000000   8.0000000   1.0000000   1.0000000

  Atom        11          12          13          14          15          16          17          18          19
 IAtWgt=          16           1           1          16           1           1          16           1           1
 AtmWgt=  15.9949146   1.0078250   1.0078250  15.9949146   1.0078250   1.0078250  15.9949146   1.0078250   1.0078250
 NucSpn=           0           1           1           0           1           1           0           1           1
 AtZEff=  -0.0000000  -0.0000000  -0.0000000  -0.0000000  -0.0000000  -0.0000000  -0.0000000  -0.0000000  -0.0000000
 NQMom=    0.0000000   0.0000000   0.0000000   0.0000000   0.0000000   0.0000000   0.0000000   0.0000000   0.0000000
 NMagM=    0.0000000   2.7928460   2.7928460   0.0000000   2.7928460   2.7928460   0.0000000   2.7928460   2.7928460
 AtZNuc=   8.0000000   1.0000000   1.0000000   8.0000000   1.0000000   1.0000000   8.0000000   1.0000000   1.0000000
 Leave Link  101 at Wed May 11 21:53:02 2022, MaxMem= 67108864000 cpu:               2.5 elap:               0.1
 (Enter /cm/shared/apps/gaussian/intel/EM64T/SSE4_2-enabled/binary//g16/l103.exe)

 GradGradGradGradGradGradGradGradGradGradGradGradGradGradGradGradGradGrad
 Berny optimization.
 Initialization pass.
 Trust Radius=3.00D-01 FncErr=1.00D-07 GrdErr=1.00D-07 EigMax=2.50D+02 EigMin=1.00D-04
 Number of steps in this run=      2 maximum allowed number of steps=      2.
 GradGradGradGradGradGradGradGradGradGradGradGradGradGradGradGradGradGrad

 Leave Link  103 at Wed May 11 21:53:02 2022, MaxMem= 67108864000 cpu:               0.6 elap:               0.0
 (Enter /cm/shared/apps/gaussian/intel/EM64T/SSE4_2-enabled/binary//g16/l202.exe)
                          Input orientation:                          
 ---------------------------------------------------------------------
 Center     Atomic      Atomic             Coordinates (Angstroms)
 Number     Number       Type             X           Y           Z
 ---------------------------------------------------------------------
      1         80           0       -0.113916    0.192854   -0.082242
      2          8           0        2.919807    2.466088    0.319998
      3          1           0        3.262887    2.874232    1.134307
      4          1           0        3.540620    2.709016   -0.388493
      5          8           0        3.147807   -1.851650    0.046888
      6          1           0        3.726050   -1.950916   -0.729316
      7          1           0        3.624473   -2.256403    0.792763
      8          8           0       -2.027356    0.314657   -0.820661
      9          1           0       -2.913474    0.404053   -0.157642
     10          1           0       -2.120436    0.900101   -1.594786
     11          8           0       -1.001741   -1.757730    1.286296
     12          1           0       -0.849539   -1.867456    2.240767
     13          1           0       -1.113448   -2.659251    0.938289
     14          8           0       -3.972451    0.441508    0.668785
     15          1           0       -4.638919   -0.260392    0.552913
     16          1           0       -4.459830    1.279542    0.770093
     17          8           0        1.811805    0.220742    0.540870
     18          1           0        2.321012    1.133317    0.407597
     19          1           0        2.399909   -0.618713    0.294974
 ---------------------------------------------------------------------
                    Distance matrix (angstroms):
                    1          2          3          4          5
     1  Hg   0.000000
     2  O    3.812200   0.000000
     3  H    4.480243   0.973337   0.000000
     4  H    4.447527   0.972822   1.556712   0.000000
     5  O    3.851689   4.332371   4.850741   4.598210   0.000000
     6  H    4.445199   4.610966   5.193233   4.676057   0.972991
     7  H    4.554124   4.798123   5.154688   5.104682   0.973327
     8  O    2.054593   5.513999   6.193545   6.076354   5.676957
     9  H    2.808525   6.205425   6.776308   6.857221   6.470638
    10  H    2.610385   5.614514   6.350221   6.064229   6.166167
    11  O    2.542815   5.844049   6.298033   6.587092   4.331709
    12  H    3.190986   6.056148   6.373375   6.865173   4.559839
    13  H    3.189836   6.551224   7.057632   7.227655   4.427766
    14  O    3.938802   7.191926   7.647547   7.918691   7.506224
    15  H    4.591787   8.038799   8.520706   8.752627   7.963747
    16  H    4.560081   7.487958   7.894051   8.209319   8.258543
    17  O    2.024215   2.513569   3.082015   3.169231   2.514702
    18  H    2.655803   1.463731   2.108559   2.145700   3.118289
    19  H    2.668379   3.128405   3.694574   3.583592   1.463226
                    6          7          8          9         10
     6  H    0.000000
     7  H    1.555752   0.000000
     8  O    6.184080   6.415345   0.000000
     9  H    7.067954   7.122222   1.110311   0.000000
    10  H    6.561915   6.976237   0.975027   1.714747   0.000000
    11  O    5.143153   4.679114   3.128249   3.226916   4.076295
    12  H    5.455673   4.718557   3.939697   3.895118   4.897552
    13  H    5.167532   4.757243   3.573970   3.718197   4.483244
    14  O    8.182011   8.062713   2.453148   1.343807   2.960409
    15  H    8.629872   8.504424   3.006268   1.980792   3.507437
    16  H    8.927078   8.823796   3.062422   2.004592   3.348043
    17  O    3.161298   3.079848   4.074524   4.780145   4.526044
    18  H    3.574800   3.652063   4.592072   5.315182   4.877539
    19  H    2.140697   2.104609   4.660096   5.429820   5.129474
                   11         12         13         14         15
    11  O    0.000000
    12  H    0.972738   0.000000
    13  H    0.972794   1.546944   0.000000
    14  O    3.747411   4.189871   4.226256   0.000000
    15  H    4.001117   4.448697   4.281587   0.974818   0.000000
    16  H    4.631400   5.010058   5.171136   0.974732   1.565451
    17  O    3.519382   3.785891   4.124246   5.789881   6.468653
    18  H    4.491208   4.734717   5.143999   6.336757   7.099590
    19  H    3.721734   3.988030   4.113554   6.470763   7.052661
                   16         17         18         19
    16  H    0.000000
    17  O    6.364511   0.000000
    18  H    6.792099   1.053493   0.000000
    19  H    7.133381   1.054047   1.757418   0.000000
 Stoichiometry    H12HgO6(2+)
 Framework group  C1[X(H12HgO6)]
 Deg. of freedom    51
 Full point group                 C1      NOp   1
 Largest Abelian subgroup         C1      NOp   1
 Largest concise Abelian subgroup C1      NOp   1
                         Standard orientation:                         
 ---------------------------------------------------------------------
 Center     Atomic      Atomic             Coordinates (Angstroms)
 Number     Number       Type             X           Y           Z
 ---------------------------------------------------------------------
      1         80           0        0.114960   -0.127314   -0.163923
      2          8           0       -2.980198   -2.209903    0.620732
      3          1           0       -3.329846   -2.464253    1.492762
      4          1           0       -3.612056   -2.550825   -0.035706
      5          8           0       -3.085922    2.004291   -0.378681
      6          1           0       -3.665827    1.987790   -1.159801
      7          1           0       -3.546200    2.543124    0.288528
      8          8           0        2.019556   -0.428243   -0.873365
      9          1           0        2.906793   -0.430179   -0.205834
     10          1           0        2.091057   -1.138621   -1.537390
     11          8           0        1.066745    1.999709    0.853812
     12          1           0        0.923608    2.273652    1.776139
     13          1           0        1.202130    2.825742    0.358163
     14          8           0        3.969307   -0.358382    0.613756
     15          1           0        4.654911    0.293981    0.380008
     16          1           0        4.433059   -1.181140    0.854809
     17          8           0       -1.806912    0.007008    0.457215
     18          1           0       -2.342894   -0.899640    0.480866
     19          1           0       -2.372191    0.809670    0.073537
 ---------------------------------------------------------------------
 Rotational constants (GHZ):           1.6163629           0.5872980           0.4774587
 Leave Link  202 at Wed May 11 21:53:02 2022, MaxMem= 67108864000 cpu:               1.6 elap:               0.1
 (Enter /cm/shared/apps/gaussian/intel/EM64T/SSE4_2-enabled/binary//g16/l301.exe)
 Standard basis: SDDAll (6D, 10F)
 Ernie: Thresh=  0.10000D-02 Tol=  0.10000D-05 Strict=F.
 There are   129 symmetry adapted cartesian basis functions of A   symmetry.
 There are   129 symmetry adapted basis functions of A   symmetry.
   129 basis functions,   227 primitive gaussians,   129 cartesian basis functions
    33 alpha electrons       33 beta electrons
       nuclear repulsion energy       336.5977393171 Hartrees.
 IExCor=    0 DFT=F Ex=HF Corr=None ExCW=0 ScaHFX=  1.000000
 ScaDFX=  1.000000  1.000000  1.000000  1.000000 ScalE2=  1.000000  1.000000
 IRadAn=      5 IRanWt=     -1 IRanGd=            0 ICorTp=0 IEmpDi=  4
 NAtoms=   19 NActive=   19 NUniq=   19 SFac= 1.00D+00 NAtFMM=   60 NAOKFM=F Big=F
 Integral buffers will be    131072 words long.
 Raffenetti 1 integral format.
 Two-electron integral symmetry is turned on.
 Leave Link  301 at Wed May 11 21:53:02 2022, MaxMem= 67108864000 cpu:               1.4 elap:               0.1
 (Enter /cm/shared/apps/gaussian/intel/EM64T/SSE4_2-enabled/binary//g16/l302.exe)
 NPDir=0 NMtPBC=     1 NCelOv=     1 NCel=       1 NClECP=     1 NCelD=      1
         NCelK=      1 NCelE2=     1 NClLst=     1 CellRange=     0.0.
 One-electron integrals computed using PRISM.
 One-electron integral symmetry used in STVInt
   1 Symmetry operations used in ECPInt.
 ECPInt:  NShTT=    2346 NPrTT=    7709 LenC2=    2301 LenP2D=    5899.
 LDataN:  DoStor=T MaxTD1= 7 Len=  274
 NBasis=   129 RedAO= T EigKep=  3.79D-04  NBF=   129
 NBsUse=   129 1.00D-06 EigRej= -1.00D+00 NBFU=   129
 Leave Link  302 at Wed May 11 21:53:02 2022, MaxMem= 67108864000 cpu:               7.5 elap:               0.3
 (Enter /cm/shared/apps/gaussian/intel/EM64T/SSE4_2-enabled/binary//g16/l303.exe)
 DipDrv:  MaxL=1.
 Leave Link  303 at Wed May 11 21:53:02 2022, MaxMem= 67108864000 cpu:               0.8 elap:               0.1
 (Enter /cm/shared/apps/gaussian/intel/EM64T/SSE4_2-enabled/binary//g16/l401.exe)
 ExpMin= 2.00D-02 ExpMax= 4.71D+01 ExpMxC= 4.71D+01 IAcc=3 IRadAn=         5 AccDes= 0.00D+00
 Harris functional with IExCor=  205 and IRadAn=       5 diagonalized for initial guess.
 HarFok:  IExCor=  205 AccDes= 0.00D+00 IRadAn=         5 IDoV= 1 UseB2=F ITyADJ=14
 ICtDFT=  3500011 ScaDFX=  1.000000  1.000000  1.000000  1.000000
 Defaulting to unpruned grid for atomic number  80.
 FoFCou: FMM=F IPFlag=           0 FMFlag=      100000 FMFlg1=           0
         NFxFlg=           0 DoJE=T BraDBF=F KetDBF=T FulRan=T
         wScrn=  0.000000 ICntrl=       500 IOpCl=  0 I1Cent=   200000004 NGrid=           0
         NMat0=    1 NMatS0=      1 NMatT0=    0 NMatD0=    1 NMtDS0=    0 NMtDT0=    0
 Petite list used in FoFCou.
 Harris En= -257.161272049416    
 JPrj=0 DoOrth=F DoCkMO=F.
 Leave Link  401 at Wed May 11 21:53:03 2022, MaxMem= 67108864000 cpu:               8.6 elap:               0.3
 (Enter /cm/shared/apps/gaussian/intel/EM64T/SSE4_2-enabled/binary//g16/l502.exe)
 Integral symmetry usage will be decided dynamically.
 Closed shell SCF:
 Using DIIS extrapolation, IDIIS=  1040.
 NGot= 67108864000 LenX= 67108825412 LenY= 67108808330
 Requested convergence on RMS density matrix=1.00D-08 within 128 cycles.
 Requested convergence on MAX density matrix=1.00D-06.
 Requested convergence on             energy=1.00D-06.
 No special actions if energy rises.
 Fock matrices will be formed incrementally for  20 cycles.

 Cycle   1  Pass 0  IDiag  1:
 FoFJK:  IHMeth= 1 ICntrl=       0 DoSepK=F KAlg= 0 I1Cent=           0 FoldK=F
 IRaf= 940000000 NMat=       1 IRICut=       1 DoRegI=T DoRafI=F ISym2E= 0 IDoP0=0 IntGTp=1.
 FoFCou: FMM=F IPFlag=           0 FMFlag=      100000 FMFlg1=           0
         NFxFlg=           0 DoJE=F BraDBF=F KetDBF=F FulRan=T
         wScrn=  0.000000 ICntrl=         0 IOpCl=  0 I1Cent=           0 NGrid=           0
         NMat0=    1 NMatS0=      1 NMatT0=    0 NMatD0=    1 NMtDS0=    0 NMtDT0=    0
 Symmetry not used in FoFCou.
 E= -252.939194272958    
 DIIS: error= 4.03D-02 at cycle   1 NSaved=   1.
 NSaved= 1 IEnMin= 1 EnMin= -252.939194272958     IErMin= 1 ErrMin= 4.03D-02
 ErrMax= 4.03D-02  0.00D+00 EMaxC= 1.00D-01 BMatC= 6.33D-01 BMatP= 6.33D-01
 IDIUse=3 WtCom= 5.97D-01 WtEn= 4.03D-01
 Coeff-Com:  0.100D+01
 Coeff-En:   0.100D+01
 Coeff:      0.100D+01
 Gap=     0.674 Goal=   None    Shift=    0.000
 GapD=    0.674 DampG=2.000 DampE=0.250 DampFc=0.5000 IDamp=-1.
 Damping current iteration by 5.00D-01
 RMSDP=7.99D-03 MaxDP=2.37D-01              OVMax= 2.24D-01

 Cycle   2  Pass 0  IDiag  1:
 RMSU=  3.98D-03    CP:  1.01D+00
 E= -253.209820638786     Delta-E=       -0.270626365828 Rises=F Damp=T
 DIIS: error= 9.86D-03 at cycle   2 NSaved=   2.
 NSaved= 2 IEnMin= 2 EnMin= -253.209820638786     IErMin= 2 ErrMin= 9.86D-03
 ErrMax= 9.86D-03  0.00D+00 EMaxC= 1.00D-01 BMatC= 3.96D-02 BMatP= 6.33D-01
 IDIUse=3 WtCom= 9.01D-01 WtEn= 9.86D-02
 Coeff-Com: -0.241D+00 0.124D+01
 Coeff-En:   0.000D+00 0.100D+01
 Coeff:     -0.217D+00 0.122D+01
 Gap=     0.549 Goal=   None    Shift=    0.000
 RMSDP=2.54D-03 MaxDP=7.99D-02 DE=-2.71D-01 OVMax= 6.34D-02

 Cycle   3  Pass 0  IDiag  1:
 RMSU=  2.12D-03    CP:  1.00D+00  1.34D+00
 E= -253.439374732966     Delta-E=       -0.229554094180 Rises=F Damp=F
 DIIS: error= 3.57D-03 at cycle   3 NSaved=   3.
 NSaved= 3 IEnMin= 3 EnMin= -253.439374732966     IErMin= 3 ErrMin= 3.57D-03
 ErrMax= 3.57D-03  0.00D+00 EMaxC= 1.00D-01 BMatC= 2.86D-03 BMatP= 3.96D-02
 IDIUse=3 WtCom= 9.64D-01 WtEn= 3.57D-02
 Coeff-Com:  0.631D-01-0.229D+00 0.117D+01
 Coeff-En:   0.000D+00 0.000D+00 0.100D+01
 Coeff:      0.609D-01-0.220D+00 0.116D+01
 Gap=     0.544 Goal=   None    Shift=    0.000
 RMSDP=1.01D-03 MaxDP=3.49D-02 DE=-2.30D-01 OVMax= 2.26D-02

 Cycle   4  Pass 0  IDiag  1:
 RMSU=  5.16D-04    CP:  9.93D-01  1.29D+00  1.37D+00
 E= -253.443224770199     Delta-E=       -0.003850037233 Rises=F Damp=F
 DIIS: error= 1.33D-03 at cycle   4 NSaved=   4.
 NSaved= 4 IEnMin= 4 EnMin= -253.443224770199     IErMin= 4 ErrMin= 1.33D-03
 ErrMax= 1.33D-03  0.00D+00 EMaxC= 1.00D-01 BMatC= 4.79D-04 BMatP= 2.86D-03
 IDIUse=3 WtCom= 9.87D-01 WtEn= 1.33D-02
 Coeff-Com:  0.312D-01-0.135D+00 0.344D+00 0.760D+00
 Coeff-En:   0.000D+00 0.000D+00 0.000D+00 0.100D+01
 Coeff:      0.308D-01-0.133D+00 0.339D+00 0.764D+00
 Gap=     0.546 Goal=   None    Shift=    0.000
 RMSDP=2.88D-04 MaxDP=7.47D-03 DE=-3.85D-03 OVMax= 1.00D-02

 Cycle   5  Pass 0  IDiag  1:
 RMSU=  1.88D-04    CP:  9.92D-01  1.30D+00  1.47D+00  1.12D+00
 E= -253.443954917176     Delta-E=       -0.000730146977 Rises=F Damp=F
 DIIS: error= 4.07D-04 at cycle   5 NSaved=   5.
 NSaved= 5 IEnMin= 5 EnMin= -253.443954917176     IErMin= 5 ErrMin= 4.07D-04
 ErrMax= 4.07D-04  0.00D+00 EMaxC= 1.00D-01 BMatC= 4.59D-05 BMatP= 4.79D-04
 IDIUse=3 WtCom= 9.96D-01 WtEn= 4.07D-03
 Coeff-Com: -0.203D-01 0.732D-01-0.225D+00-0.246D+00 0.142D+01
 Coeff-En:   0.000D+00 0.000D+00 0.000D+00 0.000D+00 0.100D+01
 Coeff:     -0.203D-01 0.729D-01-0.224D+00-0.245D+00 0.142D+01
 Gap=     0.544 Goal=   None    Shift=    0.000
 RMSDP=2.20D-04 MaxDP=5.47D-03 DE=-7.30D-04 OVMax= 7.34D-03

 Cycle   6  Pass 0  IDiag  1:
 RMSU=  6.26D-05    CP:  9.90D-01  1.31D+00  1.53D+00  1.34D+00  1.55D+00
 E= -253.444129538416     Delta-E=       -0.000174621241 Rises=F Damp=F
 DIIS: error= 1.32D-04 at cycle   6 NSaved=   6.
 NSaved= 6 IEnMin= 6 EnMin= -253.444129538416     IErMin= 6 ErrMin= 1.32D-04
 ErrMax= 1.32D-04  0.00D+00 EMaxC= 1.00D-01 BMatC= 7.53D-06 BMatP= 4.59D-05
 IDIUse=3 WtCom= 9.99D-01 WtEn= 1.32D-03
 Coeff-Com: -0.645D-02 0.266D-01-0.957D-01-0.110D+00 0.363D+00 0.823D+00
 Coeff-En:   0.000D+00 0.000D+00 0.000D+00 0.000D+00 0.000D+00 0.100D+01
 Coeff:     -0.645D-02 0.266D-01-0.955D-01-0.110D+00 0.362D+00 0.823D+00
 Gap=     0.544 Goal=   None    Shift=    0.000
 RMSDP=5.56D-05 MaxDP=1.38D-03 DE=-1.75D-04 OVMax= 1.81D-03

 Cycle   7  Pass 0  IDiag  1:
 RMSU=  1.61D-05    CP:  9.90D-01  1.31D+00  1.55D+00  1.38D+00  1.67D+00
                    CP:  1.24D+00
 E= -253.444142556959     Delta-E=       -0.000013018543 Rises=F Damp=F
 DIIS: error= 5.72D-05 at cycle   7 NSaved=   7.
 NSaved= 7 IEnMin= 7 EnMin= -253.444142556959     IErMin= 7 ErrMin= 5.72D-05
 ErrMax= 5.72D-05  0.00D+00 EMaxC= 1.00D-01 BMatC= 7.43D-07 BMatP= 7.53D-06
 IDIUse=1 WtCom= 1.00D+00 WtEn= 0.00D+00
 Coeff-Com:  0.292D-02-0.804D-02 0.228D-01 0.327D-01-0.205D+00 0.464D-01
 Coeff-Com:  0.111D+01
 Coeff:      0.292D-02-0.804D-02 0.228D-01 0.327D-01-0.205D+00 0.464D-01
 Coeff:      0.111D+01
 Gap=     0.544 Goal=   None    Shift=    0.000
 RMSDP=2.23D-05 MaxDP=4.75D-04 DE=-1.30D-05 OVMax= 7.10D-04

 Cycle   8  Pass 0  IDiag  1:
 RMSU=  5.35D-06    CP:  9.90D-01  1.31D+00  1.55D+00  1.40D+00  1.72D+00
                    CP:  1.42D+00  1.26D+00
 E= -253.444144137070     Delta-E=       -0.000001580111 Rises=F Damp=F
 DIIS: error= 7.94D-06 at cycle   8 NSaved=   8.
 NSaved= 8 IEnMin= 8 EnMin= -253.444144137070     IErMin= 8 ErrMin= 7.94D-06
 ErrMax= 7.94D-06  0.00D+00 EMaxC= 1.00D-01 BMatC= 2.12D-08 BMatP= 7.43D-07
 IDIUse=1 WtCom= 1.00D+00 WtEn= 0.00D+00
 Coeff-Com: -0.303D-03 0.447D-03 0.689D-03-0.298D-02 0.229D-01-0.258D-01
 Coeff-Com: -0.196D+00 0.120D+01
 Coeff:     -0.303D-03 0.447D-03 0.689D-03-0.298D-02 0.229D-01-0.258D-01
 Coeff:     -0.196D+00 0.120D+01
 Gap=     0.544 Goal=   None    Shift=    0.000
 RMSDP=2.62D-06 MaxDP=7.67D-05 DE=-1.58D-06 OVMax= 6.95D-05

 Initial convergence to 1.0D-05 achieved.  Increase integral accuracy.
 Cycle   9  Pass 1  IDiag  1:
 E= -253.444144179539     Delta-E=       -0.000000042469 Rises=F Damp=F
 DIIS: error= 2.66D-06 at cycle   1 NSaved=   1.
 NSaved= 1 IEnMin= 1 EnMin= -253.444144179539     IErMin= 1 ErrMin= 2.66D-06
 ErrMax= 2.66D-06  0.00D+00 EMaxC= 1.00D-01 BMatC= 3.12D-09 BMatP= 3.12D-09
 IDIUse=1 WtCom= 1.00D+00 WtEn= 0.00D+00
 Coeff-Com:  0.100D+01
 Coeff:      0.100D+01
 Gap=     0.544 Goal=   None    Shift=    0.000
 RMSDP=2.62D-06 MaxDP=7.67D-05 DE=-4.25D-08 OVMax= 1.62D-05

 Cycle  10  Pass 1  IDiag  1:
 RMSU=  5.51D-07    CP:  1.00D+00
 E= -253.444144182739     Delta-E=       -0.000000003200 Rises=F Damp=F
 DIIS: error= 1.75D-06 at cycle   2 NSaved=   2.
 NSaved= 2 IEnMin= 2 EnMin= -253.444144182739     IErMin= 2 ErrMin= 1.75D-06
 ErrMax= 1.75D-06  0.00D+00 EMaxC= 1.00D-01 BMatC= 1.14D-09 BMatP= 3.12D-09
 IDIUse=1 WtCom= 1.00D+00 WtEn= 0.00D+00
 Coeff-Com:  0.345D+00 0.655D+00
 Coeff:      0.345D+00 0.655D+00
 Gap=     0.544 Goal=   None    Shift=    0.000
 RMSDP=2.15D-07 MaxDP=6.46D-06 DE=-3.20D-09 OVMax= 8.48D-06

 Cycle  11  Pass 1  IDiag  1:
 RMSU=  2.14D-07    CP:  1.00D+00  1.03D+00
 E= -253.444144183825     Delta-E=       -0.000000001086 Rises=F Damp=F
 DIIS: error= 5.31D-07 at cycle   3 NSaved=   3.
 NSaved= 3 IEnMin= 3 EnMin= -253.444144183825     IErMin= 3 ErrMin= 5.31D-07
 ErrMax= 5.31D-07  0.00D+00 EMaxC= 1.00D-01 BMatC= 9.14D-11 BMatP= 1.14D-09
 IDIUse=1 WtCom= 1.00D+00 WtEn= 0.00D+00
 Coeff-Com: -0.300D+00-0.279D+00 0.158D+01
 Coeff:     -0.300D+00-0.279D+00 0.158D+01
 Gap=     0.544 Goal=   None    Shift=    0.000
 RMSDP=2.43D-07 MaxDP=5.50D-06 DE=-1.09D-09 OVMax= 8.67D-06

 Cycle  12  Pass 1  IDiag  1:
 RMSU=  5.91D-08    CP:  1.00D+00  1.37D+00  1.66D+00
 E= -253.444144184125     Delta-E=       -0.000000000300 Rises=F Damp=F
 DIIS: error= 1.01D-07 at cycle   4 NSaved=   4.
 NSaved= 4 IEnMin= 4 EnMin= -253.444144184125     IErMin= 4 ErrMin= 1.01D-07
 ErrMax= 1.01D-07  0.00D+00 EMaxC= 1.00D-01 BMatC= 5.13D-12 BMatP= 9.14D-11
 IDIUse=1 WtCom= 1.00D+00 WtEn= 0.00D+00
 Coeff-Com: -0.103D+00-0.108D+00 0.463D+00 0.748D+00
 Coeff:     -0.103D+00-0.108D+00 0.463D+00 0.748D+00
 Gap=     0.544 Goal=   None    Shift=    0.000
 RMSDP=2.91D-08 MaxDP=5.61D-07 DE=-3.00D-10 OVMax= 9.92D-07

 Cycle  13  Pass 1  IDiag  1:
 RMSU=  1.42D-08    CP:  1.00D+00  1.40D+00  1.74D+00  1.18D+00
 E= -253.444144184132     Delta-E=       -0.000000000007 Rises=F Damp=F
 DIIS: error= 4.51D-08 at cycle   5 NSaved=   5.
 NSaved= 5 IEnMin= 5 EnMin= -253.444144184132     IErMin= 5 ErrMin= 4.51D-08
 ErrMax= 4.51D-08  0.00D+00 EMaxC= 1.00D-01 BMatC= 4.90D-13 BMatP= 5.13D-12
 IDIUse=1 WtCom= 1.00D+00 WtEn= 0.00D+00
 Coeff-Com:  0.655D-01 0.637D-01-0.332D+00-0.118D+00 0.132D+01
 Coeff:      0.655D-01 0.637D-01-0.332D+00-0.118D+00 0.132D+01
 Gap=     0.544 Goal=   None    Shift=    0.000
 RMSDP=1.98D-08 MaxDP=5.09D-07 DE=-6.82D-12 OVMax= 6.62D-07

 Cycle  14  Pass 1  IDiag  1:
 RMSU=  4.89D-09    CP:  1.00D+00  1.41D+00  1.78D+00  1.43D+00  1.40D+00
 E= -253.444144184136     Delta-E=       -0.000000000004 Rises=F Damp=F
 DIIS: error= 9.08D-09 at cycle   6 NSaved=   6.
 NSaved= 6 IEnMin= 6 EnMin= -253.444144184136     IErMin= 6 ErrMin= 9.08D-09
 ErrMax= 9.08D-09  0.00D+00 EMaxC= 1.00D-01 BMatC= 2.01D-14 BMatP= 4.90D-13
 IDIUse=1 WtCom= 1.00D+00 WtEn= 0.00D+00
 Coeff-Com:  0.286D-02 0.369D-02-0.106D-01-0.428D-01-0.406D-01 0.109D+01
 Coeff:      0.286D-02 0.369D-02-0.106D-01-0.428D-01-0.406D-01 0.109D+01
 Gap=     0.544 Goal=   None    Shift=    0.000
 RMSDP=3.42D-09 MaxDP=7.71D-08 DE=-4.09D-12 OVMax= 1.24D-07

 SCF Done:  E(RHF) =  -253.444144184     A.U. after   14 cycles
            NFock= 14  Conv=0.34D-08     -V/T= 2.9196
 KE= 1.320262500893D+02 PE=-1.218503696219D+03 EE= 4.964355626286D+02
 Leave Link  502 at Wed May 11 21:53:05 2022, MaxMem= 67108864000 cpu:              62.6 elap:               2.3
 (Enter /cm/shared/apps/gaussian/intel/EM64T/SSE4_2-enabled/binary//g16/l801.exe)
 Range of M.O.s used for correlation:     1   129
 NBasis=   129 NAE=    33 NBE=    33 NFC=     0 NFV=     0
 NROrb=    129 NOA=    33 NOB=    33 NVA=    96 NVB=    96

 **** Warning!!: The largest alpha MO coefficient is  0.28669897D+02

 Leave Link  801 at Wed May 11 21:53:05 2022, MaxMem= 67108864000 cpu:               1.2 elap:               0.1
 (Enter /cm/shared/apps/gaussian/intel/EM64T/SSE4_2-enabled/binary//g16/l906.exe)
 FulOut=F Deriv=T AODrv=T NAtomX=    19
   MMem=           0  MDisk=          33 MDiskD=          33
  W3Min=      549153 MinDsk=     1693460 NBas6D=         129
 NBas2D=        8499    NTT=        8385    LW2=     3308096
    MDV= 67108620015 MDiskM=     7225088 NBas2p=        8153
 Disk-based method using ON**2 memory for 33 occupieds at a time.
 Permanent disk used for amplitudes=    12443904 words.
 Estimated scratch disk usage=   132829337 words.
 IMap=   1   2   3   4   5   6   7   8   9  10  11  12  13  14  15  16  17  18  19  20
 IMap=  21  22  23  24  25  26  27  28  29  30  31  32  33
 Actual    scratch disk usage=   121178777 words.
 JobTyp=1 Pass  1:  I=   1 to  33 NPSUse= 28 ParTrn=T ParDer=T DoDerP=T.
 (rs|ai) integrals will be sorted in core.
 Spin components of T(2) and E(2):
     alpha-alpha T2 =       0.3596883564D-01 E2=     -0.1158695433D+00
     alpha-beta  T2 =       0.2113135212D+00 E2=     -0.6915883859D+00
     beta-beta   T2 =       0.3596883564D-01 E2=     -0.1158695433D+00
 The integrals were generated   1 times.
 ANorm=    0.1132806776D+01
 E2 =    -0.9233274726D+00 EUMP2 =    -0.25436747165670D+03
 Leave Link  906 at Wed May 11 21:53:20 2022, MaxMem= 67108864000 cpu:             432.6 elap:              15.5
 (Enter /cm/shared/apps/gaussian/intel/EM64T/SSE4_2-enabled/binary//g16/l1101.exe)
 Using compressed Sx but separate Hx and Fx, NAtomX=    19.
 Will process     20 centers per pass.
   1 Symmetry operations used in ECPInt.
 ECPInt:  NShTT=    2346 NPrTT=    7709 LenC2=    2301 LenP2D=    5899.
 LDataN:  DoStor=T MaxTD1= 8 Len=  415
 Leave Link 1101 at Wed May 11 21:53:21 2022, MaxMem= 67108864000 cpu:              12.8 elap:               0.5
 (Enter /cm/shared/apps/gaussian/intel/EM64T/SSE4_2-enabled/binary//g16/l1102.exe)
 Leave Link 1102 at Wed May 11 21:53:21 2022, MaxMem= 67108864000 cpu:               0.7 elap:               0.0
 (Enter /cm/shared/apps/gaussian/intel/EM64T/SSE4_2-enabled/binary//g16/l1110.exe)
 Forming Gx(P) for the SCF density, NAtomX=    19.
 Integral derivatives from FoFJK, PRISM(SPDF).
 Do as many integral derivatives as possible in FoFJK.
 G2DrvN: MDV=   67108862534.
 G2DrvN: will do    20 centers at a time, making    1 passes.
 Calling FoFCou, ICntrl=  3107 FMM=F I1Cent=   0 AccDes= 0.00D+00.
 FoFJK:  IHMeth= 1 ICntrl=    3107 DoSepK=F KAlg= 0 I1Cent=           0 FoldK=F
 IRaf=         0 NMat=       1 IRICut=       1 DoRegI=T DoRafI=F ISym2E= 0 IDoP0=0 IntGTp=1.
 FoFCou: FMM=F IPFlag=           0 FMFlag=      100000 FMFlg1=           0
         NFxFlg=           0 DoJE=F BraDBF=F KetDBF=F FulRan=T
         wScrn=  0.000000 ICntrl=      3107 IOpCl=  0 I1Cent=           0 NGrid=           0
         NMat0=    1 NMatS0=      1 NMatT0=    0 NMatD0=    1 NMtDS0=    0 NMtDT0=    0
 Symmetry not used in FoFCou.
 End of G2Drv F.D. properties file   721 does not exist.
 End of G2Drv F.D. properties file   722 does not exist.
 End of G2Drv F.D. properties file   788 does not exist.
 Leave Link 1110 at Wed May 11 21:53:21 2022, MaxMem= 67108864000 cpu:              12.8 elap:               0.5
 (Enter /cm/shared/apps/gaussian/intel/EM64T/SSE4_2-enabled/binary//g16/l1002.exe)
 Minotr:  Closed shell wavefunction.
          IDoAtm=1111111111111111111
          Direct CPHF calculation.
          Differentiating once with respect to electric field.
                with respect to dipole field.
          Differentiating once with respect to nuclear coordinates.
          Requested convergence is 1.0D-08 RMS, and 1.0D-07 maximum.
          Secondary convergence is 1.0D-12 RMS, and 1.0D-12 maximum.
          NewPWx=T KeepS1=T KeepF1=T KeepIn=T MapXYZ=F SortEE=F KeepMc=T.
 Keep R1 ints in memory in canonical form, NReq=41171651.
 FoFCou: FMM=F IPFlag=           0 FMFlag=           0 FMFlg1=           0
         NFxFlg=           0 DoJE=F BraDBF=F KetDBF=F FulRan=T
         wScrn=  0.000000 ICntrl=       600 IOpCl=  0 I1Cent=           0 NGrid=           0
         NMat0=    1 NMatS0=   8385 NMatT0=    0 NMatD0=    1 NMtDS0=    0 NMtDT0=    0
 Symmetry not used in FoFCou.
 Two-electron integral symmetry not used.
          MDV=   67108864000 using IRadAn=       1.
          Solving linear equations simultaneously, MaxMat=       0.
          There are    60 degrees of freedom in the 1st order CPHF.  IDoFFX=6 NUNeed=    60.
     57 vectors produced by pass  0 Test12= 5.28D-15 1.67D-09 XBig12= 1.12D+01 1.13D+00.
 AX will form    57 AO Fock derivatives at one time.
     57 vectors produced by pass  1 Test12= 5.28D-15 1.67D-09 XBig12= 1.78D-01 7.39D-02.
     57 vectors produced by pass  2 Test12= 5.28D-15 1.67D-09 XBig12= 2.06D-03 5.69D-03.
     57 vectors produced by pass  3 Test12= 5.28D-15 1.67D-09 XBig12= 1.49D-05 6.31D-04.
     57 vectors produced by pass  4 Test12= 5.28D-15 1.67D-09 XBig12= 9.97D-08 6.04D-05.
     57 vectors produced by pass  5 Test12= 5.28D-15 1.67D-09 XBig12= 5.59D-10 3.07D-06.
     34 vectors produced by pass  6 Test12= 5.28D-15 1.67D-09 XBig12= 2.70D-12 2.13D-07.
      4 vectors produced by pass  7 Test12= 5.28D-15 1.67D-09 XBig12= 1.07D-14 1.24D-08.
 InvSVY:  IOpt=1 It=  1 EMax= 4.00D-15
 Solved reduced A of dimension   380 with    60 vectors.
 FullF1:  Do perturbations      1 to      60.
 Saving first derivative matrices.
 End of Minotr F.D. properties file   721 does not exist.
 End of Minotr F.D. properties file   722 does not exist.
 End of Minotr F.D. properties file   788 does not exist.
 Leave Link 1002 at Wed May 11 21:53:23 2022, MaxMem= 67108864000 cpu:              46.2 elap:               1.7
 (Enter /cm/shared/apps/gaussian/intel/EM64T/SSE4_2-enabled/binary//g16/l811.exe)
 MDV= 67108864000.
 Form MO integral derivatives with frozen-active canonical formalism.
 MOERI=1 MOERIx=1 NAtoms=    19 NAtomX=    19.
 Discarding MO integrals.
 MO basis two electron integral derivatives will not be stored on disk.
 IAlg= 3 DoFC=T DoPWx=T Debug=F.
 Reordered first order wavefunction length =     20072448
 In DefCFB: NBatch=  1 ICI= 33 ICA= 96 LFMax= 96
            Large arrays: LIAPS=   210874752 LIARS=   111567456 words.
 In StABat: MaxSiz= 39 MinSiz= 13 NAtomB=  4
 DoIAMN: NPSUse= 28.
 Leave Link  811 at Wed May 11 21:54:15 2022, MaxMem= 67108864000 cpu:            1436.1 elap:              51.7
 (Enter /cm/shared/apps/gaussian/intel/EM64T/SSE4_2-enabled/binary//g16/l804.exe)
 Closed-shell transformation, MDV= 67108864000 ITran=4 ISComp=1.
 Semi-Direct transformation.
 ModeAB=           4 MOrb=            33 LenV=   67108313138
 LASXX=     28702344 LTotXX=    28702344 LenRXX=    58192761
 LTotAB=    29490417 MaxLAS=    34328448 LenRXY=           0
 NonZer=    86895105 LenScr=   131092480 LnRSAI=    34328448
 LnScr1=    52258816 LExtra=           0 Total=    275872505
 MaxDsk=          -1 SrtSym=           T ITran=            4
 DoSDTr:  NPSUse= 28
 JobTyp=0 Pass  1:  I=   1 to  33.
 (rs|ai) integrals will be sorted in core.
 Complete sort for first half transformation.
 First half transformation complete.
 Begin second half transformation for I=  10.
 Begin second half transformation for I=  20.
 Begin second half transformation for I=  30.
 Complete sort for second half transformation.
 Second half transformation complete.
 SymMOI:  orbitals are not symmetric.
 Spin components of T(2) and E(2):
     alpha-alpha T2 =       0.3596883564D-01 E2=     -0.1158695433D+00
     alpha-beta  T2 =       0.2113135212D+00 E2=     -0.6915883859D+00
     beta-beta   T2 =       0.3596883564D-01 E2=     -0.1158695433D+00
 ANorm=    0.1602030707D+01
 E2 =    -0.9233274726D+00 EUMP2 =    -0.25436747165670D+03
 Leave Link  804 at Wed May 11 21:54:20 2022, MaxMem= 67108864000 cpu:             144.6 elap:               5.2
 (Enter /cm/shared/apps/gaussian/intel/EM64T/SSE4_2-enabled/binary//g16/l1002.exe)
 Minotr:  Closed shell wavefunction.
          Computing MP2/KS-MP2 derivatives.
          Using Z-Vector for PSCF gradient.
          Skipping F1 and S1 gradient terms here.
          IDoAtm=1111111111111111111
          Using MO integrals in the linear equations.
          Forming densities via direct SCF.
          Differentiating once with respect to electric field.
                with respect to dipole field.
          Differentiating once with respect to nuclear coordinates.
          Requested convergence is 1.0D-10 RMS, and 1.0D-09 maximum.
          NewPWx=F KeepS1=T KeepF1=T KeepIn=T MapXYZ=F SortEE=F KeepMc=T.
          MDV=   67108864000 using IRadAn=       5.
          Solving linear equations separately, MaxMat=       0.
          There are     1 degrees of freedom in the 1st order CPHF.  IDoFFX=0 NUNeed=     1.
 FoFJK:  IHMeth= 1 ICntrl=       0 DoSepK=F KAlg= 0 I1Cent=           0 FoldK=F
 IRaf=         0 NMat=       1 IRICut=       1 DoRegI=T DoRafI=F ISym2E= 0 IDoP0=0 IntGTp=1.
 FoFCou: FMM=F IPFlag=           0 FMFlag=      100000 FMFlg1=           0
         NFxFlg=           0 DoJE=F BraDBF=F KetDBF=F FulRan=T
         wScrn=  0.000000 ICntrl=         0 IOpCl=  0 I1Cent=           0 NGrid=           0
         NMat0=    1 NMatS0=      1 NMatT0=    0 NMatD0=    1 NMtDS0=    0 NMtDT0=    0
 Symmetry not used in FoFCou.
 LinEq1:  Iter=  0 NonCon=     1 RMS=6.34D-03 Max=9.58D-02 NDo=     1
 LinEq1:  Iter=  1 NonCon=     1 RMS=1.38D-03 Max=1.04D-02 NDo=     1
 LinEq1:  Iter=  2 NonCon=     1 RMS=4.41D-04 Max=7.07D-03 NDo=     1
 LinEq1:  Iter=  3 NonCon=     1 RMS=1.31D-04 Max=2.07D-03 NDo=     1
 LinEq1:  Iter=  4 NonCon=     1 RMS=4.52D-05 Max=5.74D-04 NDo=     1
 LinEq1:  Iter=  5 NonCon=     1 RMS=1.03D-05 Max=9.48D-05 NDo=     1
 LinEq1:  Iter=  6 NonCon=     1 RMS=4.46D-06 Max=4.11D-05 NDo=     1
 LinEq1:  Iter=  7 NonCon=     1 RMS=7.75D-07 Max=7.50D-06 NDo=     1
 LinEq1:  Iter=  8 NonCon=     1 RMS=2.00D-07 Max=2.83D-06 NDo=     1
 LinEq1:  Iter=  9 NonCon=     1 RMS=8.34D-08 Max=9.07D-07 NDo=     1
 LinEq1:  Iter= 10 NonCon=     1 RMS=1.94D-08 Max=2.68D-07 NDo=     1
 LinEq1:  Iter= 11 NonCon=     1 RMS=6.42D-09 Max=5.69D-08 NDo=     1
 LinEq1:  Iter= 12 NonCon=     1 RMS=2.12D-09 Max=3.11D-08 NDo=     1
 LinEq1:  Iter= 13 NonCon=     1 RMS=3.14D-10 Max=3.52D-09 NDo=     1
 LinEq1:  Iter= 14 NonCon=     0 RMS=4.37D-11 Max=6.20D-10 NDo=     1
 Linear equations converged to 1.000D-10 1.000D-09 after    14 iterations.
 End of Minotr F.D. properties file   721 does not exist.
 End of Minotr F.D. properties file   722 does not exist.
 End of Minotr F.D. properties file   788 does not exist.
 Leave Link 1002 at Wed May 11 21:54:23 2022, MaxMem= 67108864000 cpu:              67.6 elap:               2.5
 (Enter /cm/shared/apps/gaussian/intel/EM64T/SSE4_2-enabled/binary//g16/l1102.exe)
 Use density number 2.
 Symmetrizing basis deriv contribution to polar:
 IMax=3 JMax=2 DiffMx= 0.00D+00
 Leave Link 1102 at Wed May 11 21:54:23 2022, MaxMem= 67108864000 cpu:               0.8 elap:               0.1
 (Enter /cm/shared/apps/gaussian/intel/EM64T/SSE4_2-enabled/binary//g16/l1110.exe)
 Forming Gx(P) for generalized density number  2 NAtomX=    19.
 Integral derivatives from FoFJK, PRISM(SPDF).
 Do as many integral derivatives as possible in FoFJK.
 G2DrvN: MDV=   67108862534.
 G2DrvN: will do    20 centers at a time, making    1 passes.
 Calling FoFCou, ICntrl=  3107 FMM=F I1Cent=   0 AccDes= 0.00D+00.
 FoFJK:  IHMeth= 1 ICntrl=    3107 DoSepK=F KAlg= 0 I1Cent=           0 FoldK=F
 IRaf=         0 NMat=       1 IRICut=       1 DoRegI=T DoRafI=F ISym2E= 0 IDoP0=0 IntGTp=1.
 FoFCou: FMM=F IPFlag=           0 FMFlag=      100000 FMFlg1=           0
         NFxFlg=           0 DoJE=F BraDBF=F KetDBF=F FulRan=T
         wScrn=  0.000000 ICntrl=      3107 IOpCl=  0 I1Cent=           0 NGrid=           0
         NMat0=    1 NMatS0=      1 NMatT0=    0 NMatD0=    1 NMtDS0=    0 NMtDT0=    0
 Symmetry not used in FoFCou.
 End of G2Drv F.D. properties file   721 does not exist.
 End of G2Drv F.D. properties file   722 does not exist.
 End of G2Drv F.D. properties file   788 does not exist.
 Leave Link 1110 at Wed May 11 21:54:23 2022, MaxMem= 67108864000 cpu:              14.4 elap:               0.5
 (Enter /cm/shared/apps/gaussian/intel/EM64T/SSE4_2-enabled/binary//g16/l1112.exe)
 MP22nd: MDV=   67108864000
 This link is doing NAtomX=    19 total of    60 degrees of freedom.
 Using ON3 I/O method in MakUI.
 Using Ix for Sx.
 Using OV2 memory method for fx*t*t/D, MaxI=    33 DoOO2=F NP=  28.
 R2 and R3 integrals will be kept in memory, NReq=    71415045.
 FoFCou: FMM=F IPFlag=           0 FMFlag=           0 FMFlg1=           0
         NFxFlg=           0 DoJE=F BraDBF=F KetDBF=F FulRan=T
         wScrn=  0.000000 ICntrl=       600 IOpCl=  0 I1Cent=           0 NGrid=           0
         NMat0=    1 NMatS0=      1 NMatT0=    0 NMatD0=    1 NMtDS0=    0 NMtDT0=    0
 Symmetry not used in FoFCou.
 DD1Dir will call FoFMem   1 times, MxPair=      1122
 NAB=   561 NAA=     0 NBB=     0.
 Symmetry is being used.
 FoFJK:  IHMeth= 1 ICntrl=       0 DoSepK=F KAlg= 0 I1Cent=           0 FoldK=F
 IRaf=         0 NMat=      60 IRICut=     150 DoRegI=T DoRafI=T ISym2E= 2 IDoP0=0 IntGTp=1.
 Discarding MO integrals.
 Leave Link 1112 at Wed May 11 21:54:51 2022, MaxMem= 67108864000 cpu:             774.8 elap:              27.7
 (Enter /cm/shared/apps/gaussian/intel/EM64T/SSE4_2-enabled/binary//g16/l601.exe)
 Copying SCF densities to generalized density rwf, IOpCl= 0 IROHF=0.

 **********************************************************************

            Population analysis using the SCF density.

 **********************************************************************

 Orbital symmetries:
       Occupied  (A) (A) (A) (A) (A) (A) (A) (A) (A) (A) (A) (A)
                 (A) (A) (A) (A) (A) (A) (A) (A) (A) (A) (A) (A)
                 (A) (A) (A) (A) (A) (A) (A) (A) (A)
       Virtual   (A) (A) (A) (A) (A) (A) (A) (A) (A) (A) (A) (A)
                 (A) (A) (A) (A) (A) (A) (A) (A) (A) (A) (A) (A)
                 (A) (A) (A) (A) (A) (A) (A) (A) (A) (A) (A) (A)
                 (A) (A) (A) (A) (A) (A) (A) (A) (A) (A) (A) (A)
                 (A) (A) (A) (A) (A) (A) (A) (A) (A) (A) (A) (A)
                 (A) (A) (A) (A) (A) (A) (A) (A) (A) (A) (A) (A)
                 (A) (A) (A) (A) (A) (A) (A) (A) (A) (A) (A) (A)
                 (A) (A) (A) (A) (A) (A) (A) (A) (A) (A) (A) (A)
 The electronic state is 1-A.
 Alpha  occ. eigenvalues --   -5.41382  -3.41018  -3.40641  -3.40392  -1.69180
 Alpha  occ. eigenvalues --   -1.67095  -1.65829  -1.65752  -1.64647  -1.63010
 Alpha  occ. eigenvalues --   -1.06782  -1.05762  -1.05464  -1.02370  -1.00491
 Alpha  occ. eigenvalues --   -1.00358  -0.99863  -0.98586  -0.98196  -0.97770
 Alpha  occ. eigenvalues --   -0.96982  -0.94451  -0.90982  -0.87833  -0.86002
 Alpha  occ. eigenvalues --   -0.84419  -0.83154  -0.82435  -0.81051  -0.80336
 Alpha  occ. eigenvalues --   -0.79994  -0.79889  -0.78200
 Alpha virt. eigenvalues --   -0.23819  -0.18379  -0.16357  -0.14669  -0.14413
 Alpha virt. eigenvalues --   -0.09822  -0.09484  -0.08233  -0.07549  -0.05923
 Alpha virt. eigenvalues --   -0.05261  -0.05101  -0.03386  -0.02662  -0.02502
 Alpha virt. eigenvalues --   -0.00428  -0.00329   0.00547   0.01089   0.01784
 Alpha virt. eigenvalues --    0.01953   0.02559   0.04200   0.04792   0.05296
 Alpha virt. eigenvalues --    0.06366   0.07358   0.08453   0.09906   0.11451
 Alpha virt. eigenvalues --    0.11969   0.13058   0.13893   0.14516   0.15829
 Alpha virt. eigenvalues --    0.16672   0.19344   0.20379   0.20532   0.22011
 Alpha virt. eigenvalues --    0.22695   0.25481   0.27209   0.28361   0.37226
 Alpha virt. eigenvalues --    0.64490   0.67575   0.69112   0.71826   0.95103
 Alpha virt. eigenvalues --    0.99376   1.06396   1.07631   1.07820   1.08172
 Alpha virt. eigenvalues --    1.09851   1.10879   1.11299   1.12548   1.13738
 Alpha virt. eigenvalues --    1.14113   1.15562   1.15790   1.16411   1.17747
 Alpha virt. eigenvalues --    1.18356   1.18660   1.19052   1.20330   1.21802
 Alpha virt. eigenvalues --    1.23418   1.25102   1.26779   1.29200   1.31898
 Alpha virt. eigenvalues --    1.32747   1.34355   1.35964   1.36113   1.38229
 Alpha virt. eigenvalues --    1.39962   1.45726   1.49322   1.54131   2.17547
 Alpha virt. eigenvalues --    2.29441   2.36277   2.44548   2.86031   3.09966
 Alpha virt. eigenvalues --    4.26318  15.49908  41.60791  41.66327  41.75907
 Alpha virt. eigenvalues --   81.48101
          Condensed to atoms (all electrons):
               1          2          3          4          5          6
     1  Hg  18.395912  -0.003174   0.000830   0.000525  -0.002305   0.000469
     2  O   -0.003174   6.397221   0.263644   0.261743  -0.001162   0.000043
     3  H    0.000830   0.263644   0.240891  -0.015329  -0.000005  -0.000000
     4  H    0.000525   0.261743  -0.015329   0.246894   0.000048   0.000000
     5  O   -0.002305  -0.001162  -0.000005   0.000048   6.393451   0.262036
     6  H    0.000469   0.000043  -0.000000   0.000000   0.262036   0.248636
     7  H    0.001004   0.000000  -0.000000  -0.000000   0.263484  -0.015403
     8  O    0.106250  -0.000058   0.000001  -0.000001  -0.000057   0.000001
     9  H   -0.002582   0.000001   0.000000  -0.000000   0.000000  -0.000000
    10  H   -0.006672   0.000006  -0.000000   0.000000   0.000004   0.000000
    11  O    0.022753  -0.000010  -0.000001   0.000000  -0.001164  -0.000007
    12  H   -0.003555   0.000001   0.000000   0.000000  -0.000037  -0.000000
    13  H   -0.000546   0.000000   0.000000  -0.000000   0.000020  -0.000000
    14  O   -0.001183   0.000002  -0.000000  -0.000000   0.000001  -0.000000
    15  H    0.000811  -0.000000   0.000000  -0.000000  -0.000000   0.000000
    16  H    0.000299  -0.000000  -0.000000   0.000000  -0.000000  -0.000000
    17  O    0.136176  -0.031641   0.000391   0.000485  -0.032322   0.000674
    18  H   -0.004984   0.044693  -0.001033  -0.000869  -0.000070   0.000002
    19  H   -0.002544   0.000173  -0.000012  -0.000003   0.046003  -0.000945
               7          8          9         10         11         12
     1  Hg   0.001004   0.106250  -0.002582  -0.006672   0.022753  -0.003555
     2  O    0.000000  -0.000058   0.000001   0.000006  -0.000010   0.000001
     3  H   -0.000000   0.000001   0.000000  -0.000000  -0.000001   0.000000
     4  H   -0.000000  -0.000001  -0.000000   0.000000   0.000000   0.000000
     5  O    0.263484  -0.000057   0.000000   0.000004  -0.001164  -0.000037
     6  H   -0.015403   0.000001  -0.000000   0.000000  -0.000007  -0.000000
     7  H    0.241749   0.000001  -0.000000  -0.000000  -0.000011   0.000000
     8  O    0.000001   6.597580   0.157815   0.243234  -0.008492   0.000500
     9  H   -0.000000   0.157815   0.140163  -0.006950   0.000813  -0.000006
    10  H   -0.000000   0.243234  -0.006950   0.239977   0.000467  -0.000000
    11  O   -0.000011  -0.008492   0.000813   0.000467   6.419367   0.262277
    12  H    0.000000   0.000500  -0.000006  -0.000000   0.262277   0.250074
    13  H    0.000000  -0.000094   0.000004  -0.000003   0.260703  -0.016064
    14  O   -0.000000  -0.054558   0.079647   0.001313  -0.003224   0.000064
    15  H    0.000000   0.001820  -0.002291  -0.000027  -0.000096  -0.000001
    16  H   -0.000000   0.001218  -0.001989  -0.000039   0.000051  -0.000000
    17  O    0.000200   0.000729   0.000072  -0.000204  -0.005408   0.000523
    18  H   -0.000012  -0.000133   0.000000   0.000000   0.000083  -0.000000
    19  H   -0.001179   0.000047   0.000000   0.000000  -0.000111  -0.000002
              13         14         15         16         17         18
     1  Hg  -0.000546  -0.001183   0.000811   0.000299   0.136176  -0.004984
     2  O    0.000000   0.000002  -0.000000  -0.000000  -0.031641   0.044693
     3  H    0.000000  -0.000000   0.000000  -0.000000   0.000391  -0.001033
     4  H   -0.000000  -0.000000  -0.000000   0.000000   0.000485  -0.000869
     5  O    0.000020   0.000001  -0.000000  -0.000000  -0.032322  -0.000070
     6  H   -0.000000  -0.000000   0.000000  -0.000000   0.000674   0.000002
     7  H    0.000000  -0.000000   0.000000  -0.000000   0.000200  -0.000012
     8  O   -0.000094  -0.054558   0.001820   0.001218   0.000729  -0.000133
     9  H    0.000004   0.079647  -0.002291  -0.001989   0.000072   0.000000
    10  H   -0.000003   0.001313  -0.000027  -0.000039  -0.000204   0.000000
    11  O    0.260703  -0.003224  -0.000096   0.000051  -0.005408   0.000083
    12  H   -0.016064   0.000064  -0.000001  -0.000000   0.000523  -0.000000
    13  H    0.251052   0.000009   0.000001   0.000000  -0.000039  -0.000000
    14  O    0.000009   6.362439   0.259508   0.258062  -0.000021   0.000002
    15  H    0.000001   0.259508   0.233314  -0.013164   0.000000  -0.000000
    16  H    0.000000   0.258062  -0.013164   0.240093   0.000001   0.000000
    17  O   -0.000039  -0.000021   0.000000   0.000001   6.654625   0.187832
    18  H   -0.000000   0.000002  -0.000000   0.000000   0.187832   0.155277
    19  H    0.000004   0.000001  -0.000000  -0.000000   0.185744  -0.004266
              19
     1  Hg  -0.002544
     2  O    0.000173
     3  H   -0.000012
     4  H   -0.000003
     5  O    0.046003
     6  H   -0.000945
     7  H   -0.001179
     8  O    0.000047
     9  H    0.000000
    10  H    0.000000
    11  O   -0.000111
    12  H   -0.000002
    13  H    0.000004
    14  O    0.000001
    15  H   -0.000000
    16  H   -0.000000
    17  O    0.185744
    18  H   -0.004266
    19  H    0.152760
 Mulliken charges:
               1
     1  Hg   1.362518
     2  O   -0.931483
     3  H    0.510622
     4  H    0.506506
     5  O   -0.927925
     6  H    0.504494
     7  H    0.510166
     8  O   -1.045805
     9  H    0.635303
    10  H    0.528894
    11  O   -0.947991
    12  H    0.506227
    13  H    0.504952
    14  O   -0.902064
    15  H    0.520126
    16  H    0.515467
    17  O   -1.097816
    18  H    0.623480
    19  H    0.624331
 Sum of Mulliken charges =   2.00000
 Mulliken charges with hydrogens summed into heavy atoms:
               1
     1  Hg   1.362518
     2  O    0.085645
     5  O    0.086735
     8  O    0.118392
    11  O    0.063187
    14  O    0.133529
    17  O    0.149995
         Mulliken charges condensed to fragments:
      1      1.362518
      2      0.637482
 APT charges:
               1
     1  Hg   1.457039
     2  O   -0.779025
     3  H    0.381078
     4  H    0.373795
     5  O   -0.775851
     6  H    0.371790
     7  H    0.379644
     8  O   -0.947698
     9  H    0.864905
    10  H    0.340416
    11  O   -0.703071
    12  H    0.347364
    13  H    0.346030
    14  O   -0.806679
    15  H    0.396477
    16  H    0.388813
    17  O   -1.103367
    18  H    0.733894
    19  H    0.734446
 Sum of APT charges =   2.00000
 APT charges with hydrogens summed into heavy atoms:
               1
     1  Hg   1.457039
     2  O   -0.024152
     5  O   -0.024417
     8  O    0.257624
    11  O   -0.009677
    14  O   -0.021389
    17  O    0.364972
         APT charges condensed to fragments:
      1      1.457039
      2      0.542961
 Electronic spatial extent (au):  <R**2>=           1870.6932
 Charge=              2.0000 electrons
 Dipole moment (field-independent basis, Debye):
    X=             -1.2762    Y=             -0.3163    Z=              0.2659  Tot=              1.3414
 Quadrupole moment (field-independent basis, Debye-Ang):
   XX=             48.9350   YY=            -19.1520   ZZ=            -45.2602
   XY=             -3.6860   XZ=              1.4254   YZ=              2.0638
 Traceless Quadrupole moment (field-independent basis, Debye-Ang):
   XX=             54.0941   YY=            -13.9929   ZZ=            -40.1011
   XY=             -3.6860   XZ=              1.4254   YZ=              2.0638
 Octapole moment (field-independent basis, Debye-Ang**2):
  XXX=             34.3580  YYY=             20.9148  ZZZ=             -8.4767  XYY=            -47.2785
  XXY=            -36.4456  XXZ=             11.9488  XZZ=             -9.1929  YZZ=             -4.9621
  YYZ=             17.1201  XYZ=             21.0169
 Hexadecapole moment (field-independent basis, Debye-Ang**3):
 XXXX=            312.0818 YYYY=           -316.9973 ZZZZ=           -115.7691 XXXY=           -120.6960
 XXXZ=             93.6328 YYYX=             50.1915 YYYZ=             25.4571 ZZZX=            -12.7213
 ZZZY=             10.3055 XXYY=             57.4943 XXZZ=           -219.3645 YYZZ=            -52.9822
 XXYZ=            -83.7134 YYXZ=            -17.9788 ZZXY=              4.5730
 N-N= 3.365977393171D+02 E-N=-1.218503697396D+03  KE= 1.320262500893D+02
  Exact polarizability:  70.073   0.382  54.765  -0.119   0.942  47.451
 Approx polarizability:  37.736   0.457  35.699   0.789   0.127  34.902
 No NMR shielding tensors so no spin-rotation constants.
 Leave Link  601 at Wed May 11 21:54:51 2022, MaxMem= 67108864000 cpu:               5.0 elap:               0.2
 (Enter /cm/shared/apps/gaussian/intel/EM64T/SSE4_2-enabled/binary//g16/l701.exe)
 ... and contract with generalized density number  2.
 Compute integral second derivatives.
   1 Symmetry operations used in ECPInt.
 ECPInt:  NShTT=    2346 NPrTT=    7709 LenC2=    2301 LenP2D=    5899.
 LDataN:  DoStor=T MaxTD1= 9 Len=  602
 Leave Link  701 at Wed May 11 21:54:53 2022, MaxMem= 67108864000 cpu:              39.0 elap:               1.4
 (Enter /cm/shared/apps/gaussian/intel/EM64T/SSE4_2-enabled/binary//g16/l702.exe)
 L702 exits ... SP integral derivatives will be done elsewhere.
 Leave Link  702 at Wed May 11 21:54:53 2022, MaxMem= 67108864000 cpu:               0.7 elap:               0.0
 (Enter /cm/shared/apps/gaussian/intel/EM64T/SSE4_2-enabled/binary//g16/l703.exe)
 Integral derivatives from FoFJK, PRISM(SPDF).
 Compute integral second derivatives, UseDBF=F ICtDFT=           0.
 Calling FoFJK, ICntrl=  10100127 FMM=F ISym2X=0 I1Cent= 0 IOpClX= 0 NMat=1 NMatS=1 NMatT=0.
 FoFJK:  IHMeth= 1 ICntrl=10100127 DoSepK=F KAlg= 0 I1Cent=           0 FoldK=F
 IRaf=         0 NMat=       1 IRICut=       1 DoRegI=T DoRafI=F ISym2E= 0 IDoP0=0 IntGTp=1.
 FoFCou: FMM=F IPFlag=           0 FMFlag=      100000 FMFlg1=         800
         NFxFlg=           0 DoJE=F BraDBF=F KetDBF=F FulRan=T
         wScrn=  0.000000 ICntrl=  10100127 IOpCl=  0 I1Cent=           0 NGrid=           0
         NMat0=    1 NMatS0=      1 NMatT0=    0 NMatD0=    1 NMtDS0=    0 NMtDT0=    0
 Symmetry not used in FoFCou.
 Leave Link  703 at Wed May 11 21:54:53 2022, MaxMem= 67108864000 cpu:              20.8 elap:               0.8
 (Enter /cm/shared/apps/gaussian/intel/EM64T/SSE4_2-enabled/binary//g16/l716.exe)
 Dipole        =-4.76657143D-01-5.06168721D-02 1.70726481D-01
 Polarizability= 7.00729143D+01 3.81905757D-01 5.47645341D+01
                -1.18842949D-01 9.42028010D-01 4.74509397D+01
 Full mass-weighted force constant matrix:
 Low frequencies --- -430.4929 -363.8496 -359.5891 -323.4614 -100.7361  -80.8610
 Low frequencies ---  -77.1106  -64.4055  -33.1937
 ******    7 imaginary frequencies (negative Signs) ****** 
 Diagonal vibrational polarizability:
      204.2573266     365.4355677     463.4734695
 Harmonic frequencies (cm**-1), IR intensities (KM/Mole), Raman scattering
 activities (A**4/AMU), depolarization ratios for plane and unpolarized
 incident light, reduced masses (AMU), force constants (mDyne/A),
 and normal coordinates:
                      1                      2                      3
                      A                      A                      A
 Frequencies --   -430.0734              -362.4811              -359.1300
 Red. masses --      1.0145                 1.0129                 1.0301
 Frc consts  --      0.1106                 0.0784                 0.0783
 IR Inten    --      9.8639                 1.0574                50.0806
  Atom  AN      X      Y      Z        X      Y      Z        X      Y      Z
     1  80    -0.00   0.00  -0.00     0.00  -0.00   0.00    -0.00   0.00  -0.00
     2   8     0.00  -0.00   0.00    -0.00   0.00  -0.01    -0.00  -0.00  -0.02
     3   1     0.01  -0.01   0.00     0.40  -0.36   0.04     0.32  -0.30   0.02
     4   1    -0.00   0.01   0.00    -0.38   0.38   0.14    -0.30   0.31   0.10
     5   8    -0.00  -0.00   0.01     0.00   0.00   0.01    -0.00  -0.01  -0.02
     6   1     0.01   0.01  -0.00     0.30   0.26  -0.22    -0.36  -0.33   0.25
     7   1    -0.01  -0.01   0.00    -0.30  -0.31   0.05     0.37   0.38  -0.09
     8   8     0.00   0.01  -0.00     0.00  -0.00   0.00     0.00   0.00   0.00
     9   1     0.01  -0.01   0.01     0.00   0.00   0.00    -0.00  -0.00   0.00
    10   1     0.00   0.01  -0.01    -0.00  -0.01   0.01     0.00   0.01  -0.00
    11   8    -0.01  -0.01   0.01     0.00   0.00  -0.01    -0.00   0.00   0.00
    12   1    -0.66   0.21  -0.15     0.00   0.00  -0.01     0.01   0.00   0.00
    13   1     0.69  -0.15  -0.02    -0.03   0.01  -0.01     0.02  -0.00   0.00
    14   8     0.00  -0.00  -0.01    -0.00   0.00   0.00    -0.00   0.00   0.01
    15   1     0.02  -0.02  -0.02    -0.01   0.01   0.01     0.00  -0.00   0.00
    16   1    -0.02  -0.00   0.03     0.01   0.01  -0.01    -0.00   0.00   0.01
    17   8     0.00   0.00   0.00     0.00   0.00   0.00     0.01   0.00   0.02
    18   1     0.00   0.00   0.01     0.00   0.00   0.05     0.00   0.01   0.05
    19   1    -0.00  -0.00  -0.00     0.00  -0.02  -0.04     0.00   0.02   0.05
                      4                      5                      6
                      A                      A                      A
 Frequencies --   -322.5757               -96.5683               -74.8590
 Red. masses --      1.0339                 2.7959                 2.6496
 Frc consts  --      0.0634                 0.0154                 0.0087
 IR Inten    --     48.0220                 7.4066                28.4985
  Atom  AN      X      Y      Z        X      Y      Z        X      Y      Z
     1  80    -0.00   0.00  -0.00     0.00   0.01  -0.00     0.00  -0.01  -0.02
     2   8     0.00  -0.00  -0.01     0.01  -0.03   0.09     0.00  -0.04   0.04
     3   1     0.00  -0.01  -0.01     0.06   0.02   0.13     0.14   0.07   0.13
     4   1    -0.00   0.01  -0.01    -0.04  -0.07   0.15    -0.10  -0.12   0.18
     5   8    -0.00   0.00   0.01     0.01  -0.06  -0.05    -0.00   0.09   0.17
     6   1     0.01   0.02   0.00     0.06  -0.11  -0.09    -0.24   0.36   0.34
     7   1    -0.01  -0.01   0.02    -0.05  -0.05  -0.10     0.25  -0.02   0.44
     8   8     0.00  -0.01   0.00     0.01   0.22  -0.07     0.04   0.02   0.06
     9   1    -0.01  -0.04   0.02    -0.01   0.08  -0.05     0.01   0.03   0.09
    10   1    -0.00  -0.01   0.01     0.06   0.44  -0.30     0.07   0.02   0.06
    11   8    -0.01  -0.01   0.01    -0.02   0.03  -0.01    -0.00   0.05  -0.12
    12   1     0.06  -0.02   0.02     0.05   0.08  -0.02     0.05   0.20  -0.15
    13   1    -0.00  -0.01   0.01    -0.05  -0.00  -0.07    -0.01  -0.03  -0.26
    14   8     0.01   0.03  -0.01    -0.06  -0.20   0.05    -0.01   0.01   0.13
    15   1     0.24  -0.39  -0.54     0.18  -0.39   0.20     0.01  -0.01   0.16
    16   1    -0.28   0.07   0.64    -0.35  -0.36   0.06    -0.04  -0.01   0.13
    17   8    -0.00  -0.00  -0.00     0.01  -0.04   0.01    -0.04  -0.05  -0.15
    18   1     0.00  -0.00  -0.00     0.01  -0.05   0.02    -0.03  -0.05  -0.14
    19   1    -0.00  -0.00   0.00     0.00  -0.05   0.01    -0.03  -0.03  -0.13
                      7                      8                      9
                      A                      A                      A
 Frequencies --    -69.3889                26.8343                50.4543
 Red. masses --      2.9396                 5.2419                 5.2067
 Frc consts  --      0.0083                 0.0022                 0.0078
 IR Inten    --     33.4805                 6.4919                 5.7733
  Atom  AN      X      Y      Z        X      Y      Z        X      Y      Z
     1  80    -0.00   0.00  -0.03    -0.01   0.04   0.00    -0.04  -0.00   0.03
     2   8     0.03   0.01   0.20     0.28  -0.10  -0.04     0.23  -0.18  -0.03
     3   1     0.25   0.20   0.34     0.35  -0.12  -0.02     0.34  -0.17   0.02
     4   1    -0.13  -0.14   0.43     0.29  -0.18   0.00     0.21  -0.28   0.05
     5   8    -0.01   0.03  -0.04    -0.23  -0.05  -0.00     0.30   0.19  -0.12
     6   1    -0.05   0.06  -0.02    -0.24  -0.11   0.00     0.30   0.29  -0.12
     7   1     0.03   0.02  -0.01    -0.26  -0.08  -0.00     0.37   0.24  -0.11
     8   8     0.02  -0.02   0.03    -0.02  -0.20   0.06    -0.04   0.03   0.00
     9   1     0.01  -0.00   0.03    -0.01  -0.18   0.05    -0.01   0.01  -0.03
    10   1     0.03  -0.03   0.04    -0.09  -0.33   0.19    -0.06   0.05  -0.02
    11   8    -0.03  -0.10   0.22     0.09  -0.00  -0.03    -0.07   0.02  -0.00
    12   1    -0.11  -0.35   0.28     0.11  -0.00  -0.03    -0.05   0.08  -0.02
    13   1     0.01   0.04   0.45     0.10  -0.00  -0.03    -0.07  -0.02  -0.06
    14   8     0.02   0.03   0.03     0.01  -0.22   0.03     0.04  -0.01  -0.11
    15   1    -0.01   0.05   0.00     0.02  -0.23   0.05     0.03  -0.01  -0.14
    16   1     0.05   0.05   0.03    -0.01  -0.24  -0.03     0.04  -0.02  -0.14
    17   8    -0.02   0.01  -0.10    -0.02   0.09  -0.04    -0.06  -0.02  -0.04
    18   1    -0.02   0.01  -0.08     0.05   0.06  -0.05    -0.02  -0.04  -0.07
    19   1    -0.02   0.02  -0.10    -0.07   0.06  -0.04     0.00   0.00  -0.07
                     10                     11                     12
                      A                      A                      A
 Frequencies --     58.3516                69.0242               107.4275
 Red. masses --      5.3212                 5.2078                 6.2810
 Frc consts  --      0.0107                 0.0146                 0.0427
 IR Inten    --      1.0885                 1.3409                 2.0530
  Atom  AN      X      Y      Z        X      Y      Z        X      Y      Z
     1  80     0.01   0.01   0.04    -0.03   0.01   0.02    -0.00   0.08  -0.02
     2   8    -0.16   0.01  -0.04    -0.04  -0.06  -0.01    -0.19  -0.18   0.07
     3   1    -0.04   0.13   0.04     0.04  -0.00   0.03    -0.22  -0.14   0.07
     4   1    -0.28  -0.03   0.10    -0.10  -0.10   0.06    -0.20  -0.13   0.06
     5   8    -0.10  -0.03  -0.07    -0.03  -0.04  -0.08     0.21  -0.15   0.03
     6   1    -0.22   0.06   0.01    -0.05   0.01  -0.07     0.25  -0.12  -0.00
     7   1     0.01  -0.08   0.04     0.01  -0.05  -0.05     0.22  -0.10  -0.01
     8   8     0.04   0.03   0.09    -0.01   0.12   0.01    -0.00  -0.19   0.05
     9   1     0.12  -0.00   0.02    -0.01   0.13   0.01    -0.01  -0.12   0.04
    10   1     0.01   0.06   0.06     0.03   0.16  -0.02    -0.07  -0.40   0.27
    11   8    -0.11   0.06   0.01     0.43  -0.14  -0.01     0.01  -0.01  -0.03
    12   1    -0.07   0.13  -0.00     0.52  -0.00  -0.03    -0.01  -0.08  -0.02
    13   1    -0.13   0.03  -0.06     0.50  -0.22  -0.12     0.05   0.02   0.03
    14   8     0.27  -0.12  -0.23     0.02   0.11  -0.02     0.02  -0.07   0.05
    15   1     0.27  -0.14  -0.29     0.03   0.09  -0.05    -0.03  -0.03   0.05
    16   1     0.26  -0.16  -0.34     0.01   0.11  -0.01     0.08  -0.05   0.00
    17   8    -0.07  -0.06  -0.21    -0.07  -0.06  -0.10    -0.00  -0.26   0.08
    18   1    -0.08  -0.06  -0.21    -0.05  -0.07  -0.11     0.03  -0.29   0.06
    19   1    -0.07  -0.06  -0.22    -0.07  -0.07  -0.12    -0.02  -0.28   0.11
                     13                     14                     15
                      A                      A                      A
 Frequencies --    129.5859               191.3433               278.0767
 Red. masses --      5.8953                 6.2687                 1.2567
 Frc consts  --      0.0583                 0.1352                 0.0573
 IR Inten    --      8.8823                 2.2464                 7.7601
  Atom  AN      X      Y      Z        X      Y      Z        X      Y      Z
     1  80    -0.05  -0.02  -0.05    -0.01  -0.03  -0.02    -0.01   0.00   0.00
     2   8     0.05   0.04   0.03    -0.01  -0.00  -0.01     0.04   0.05   0.04
     3   1    -0.10  -0.10  -0.07     0.01   0.03   0.01    -0.20  -0.22  -0.14
     4   1     0.18   0.12  -0.14    -0.02  -0.02   0.02     0.19   0.30  -0.24
     5   8     0.03  -0.01   0.05     0.04  -0.05   0.00     0.03  -0.08  -0.05
     6   1     0.18  -0.14  -0.05     0.03   0.00   0.01    -0.24   0.38   0.14
     7   1    -0.11   0.05  -0.10     0.07  -0.07   0.04     0.36  -0.29   0.35
     8   8     0.10   0.12   0.29    -0.05  -0.05   0.03    -0.01   0.01  -0.01
     9   1     0.12   0.15   0.32     0.00  -0.08   0.06    -0.01   0.03  -0.02
    10   1     0.25   0.18   0.24    -0.08  -0.02  -0.00    -0.01  -0.02   0.02
    11   8     0.05   0.03  -0.00     0.18   0.48   0.23    -0.01  -0.02   0.01
    12   1     0.06   0.01   0.01     0.06   0.48   0.21    -0.01  -0.07   0.03
    13   1     0.01   0.05   0.01     0.14   0.49   0.23     0.02   0.01   0.07
    14   8     0.29  -0.03   0.06    -0.09  -0.03  -0.05     0.00  -0.01  -0.00
    15   1     0.33  -0.08   0.02    -0.15   0.00  -0.12     0.03  -0.03   0.02
    16   1     0.22  -0.10  -0.06    -0.05   0.03   0.04    -0.03  -0.03  -0.03
    17   8     0.04   0.05   0.19     0.02  -0.03  -0.04     0.01   0.01  -0.02
    18   1     0.03   0.06   0.21     0.02  -0.03  -0.03     0.05  -0.01   0.19
    19   1     0.03   0.06   0.21     0.01  -0.02  -0.04    -0.02  -0.11  -0.26
                     16                     17                     18
                      A                      A                      A
 Frequencies --    282.1539               307.0265               341.5317
 Red. masses --      3.0502                 1.1524                 1.2661
 Frc consts  --      0.1431                 0.0640                 0.0870
 IR Inten    --     14.4333                93.5258                40.4345
  Atom  AN      X      Y      Z        X      Y      Z        X      Y      Z
     1  80    -0.02   0.00   0.01     0.00   0.00  -0.00     0.00   0.00  -0.01
     2   8     0.10   0.20  -0.10     0.01   0.00   0.01     0.00   0.01   0.02
     3   1     0.43   0.56   0.14    -0.01  -0.02  -0.00    -0.03  -0.01   0.00
     4   1    -0.11  -0.12   0.27     0.02   0.01  -0.01     0.02   0.03  -0.01
     5   8     0.13  -0.20   0.07    -0.00  -0.01  -0.01    -0.00   0.00  -0.01
     6   1     0.17  -0.27   0.04    -0.02   0.02   0.01    -0.01  -0.00  -0.01
     7   1     0.09  -0.16   0.01     0.02  -0.04   0.03    -0.01  -0.02   0.00
     8   8    -0.03  -0.00   0.01    -0.00  -0.00   0.07    -0.00  -0.01   0.02
     9   1    -0.04   0.00  -0.01    -0.02  -0.34   0.14     0.03   0.07   0.03
    10   1    -0.03  -0.02   0.02     0.00   0.42  -0.37    -0.01  -0.12   0.14
    11   8    -0.02  -0.02  -0.02    -0.01  -0.02  -0.00    -0.03  -0.04   0.10
    12   1     0.03   0.02  -0.03     0.02   0.08  -0.03     0.22   0.63  -0.05
    13   1     0.01  -0.06  -0.06    -0.04  -0.08  -0.10    -0.14  -0.41  -0.53
    14   8    -0.00   0.01  -0.00    -0.04  -0.05  -0.01    -0.03   0.01  -0.03
    15   1    -0.00   0.00  -0.01    -0.39   0.20  -0.32     0.03  -0.02   0.06
    16   1     0.01   0.01  -0.02     0.38   0.23   0.15    -0.11  -0.04  -0.05
    17   8     0.04  -0.02  -0.07     0.01  -0.00   0.00     0.01  -0.00   0.01
    18   1     0.01  -0.03  -0.29     0.01  -0.01   0.02     0.01   0.00   0.03
    19   1     0.07   0.05  -0.00     0.00  -0.02  -0.01     0.01  -0.01   0.01
                     19                     20                     21
                      A                      A                      A
 Frequencies --    362.2614               381.2558               409.6373
 Red. masses --      3.5985                 1.7365                 4.7998
 Frc consts  --      0.2782                 0.1487                 0.4745
 IR Inten    --     93.6182                59.7059               112.7789
  Atom  AN      X      Y      Z        X      Y      Z        X      Y      Z
     1  80     0.02  -0.00  -0.00     0.01  -0.00  -0.00     0.00  -0.00   0.00
     2   8     0.00  -0.00   0.01    -0.04  -0.04  -0.08    -0.12  -0.21   0.02
     3   1    -0.06  -0.08  -0.04     0.25   0.37   0.15    -0.13  -0.21   0.01
     4   1     0.03   0.08  -0.06    -0.25  -0.37   0.29    -0.13  -0.23   0.04
     5   8     0.01   0.00   0.03    -0.02   0.00  -0.08     0.12  -0.17   0.08
     6   1     0.05  -0.11  -0.00    -0.26   0.37   0.09     0.18  -0.26   0.04
     7   1    -0.05   0.06  -0.06     0.22  -0.24   0.28     0.09  -0.14   0.03
     8   8    -0.07   0.07   0.26    -0.00   0.01   0.03    -0.00   0.01  -0.01
     9   1     0.08   0.22   0.32     0.02   0.03   0.04    -0.01  -0.01  -0.01
    10   1    -0.03  -0.05   0.39     0.01  -0.00   0.04     0.01   0.04  -0.04
    11   8     0.01  -0.04  -0.06     0.00  -0.00  -0.01    -0.02  -0.01  -0.00
    12   1    -0.20  -0.29  -0.02    -0.01  -0.02  -0.00     0.11   0.04   0.01
    13   1    -0.08   0.11   0.17     0.00   0.01   0.02     0.06  -0.05  -0.04
    14   8    -0.22   0.01  -0.17    -0.02   0.00  -0.02     0.01   0.00   0.01
    15   1    -0.09  -0.10  -0.06     0.00  -0.02   0.00     0.00   0.01   0.01
    16   1    -0.44  -0.14  -0.25    -0.06  -0.02  -0.04     0.02   0.00  -0.01
    17   8     0.04  -0.01  -0.05     0.00   0.05   0.17    -0.00   0.37  -0.10
    18   1     0.04   0.01   0.02     0.00   0.03  -0.15     0.01   0.48  -0.02
    19   1     0.02   0.01   0.02     0.03  -0.05  -0.11    -0.02   0.45  -0.16
                     22                     23                     24
                      A                      A                      A
 Frequencies --    482.7268               537.4672               588.2602
 Red. masses --      1.4057                 1.1898                 3.7972
 Frc consts  --      0.1930                 0.2025                 0.7742
 IR Inten    --     65.6653               344.2815               167.1295
  Atom  AN      X      Y      Z        X      Y      Z        X      Y      Z
     1  80    -0.00  -0.00   0.00     0.00  -0.00  -0.00    -0.00   0.00   0.00
     2   8     0.00   0.00   0.00     0.01  -0.01   0.00     0.01   0.06   0.00
     3   1     0.00   0.01   0.01    -0.05   0.06   0.00     0.11  -0.13  -0.02
     4   1    -0.00  -0.00   0.01    -0.04   0.06   0.00     0.13  -0.07  -0.03
     5   8     0.00  -0.01  -0.00    -0.02   0.01  -0.00    -0.00  -0.07   0.04
     6   1    -0.00  -0.00   0.00     0.04   0.08  -0.05     0.22   0.21  -0.12
     7   1     0.01   0.00  -0.00     0.01   0.05  -0.03     0.19   0.27  -0.12
     8   8     0.06   0.12  -0.06    -0.02   0.02   0.01     0.30  -0.05   0.00
     9   1    -0.02  -0.04   0.15    -0.06  -0.01   0.02     0.35  -0.05   0.06
    10   1    -0.10  -0.52   0.57    -0.04  -0.06   0.09     0.29   0.05  -0.10
    11   8     0.01  -0.00  -0.00    -0.09   0.02  -0.01    -0.03   0.01  -0.00
    12   1    -0.10   0.00  -0.02     0.66  -0.06   0.12     0.24  -0.04   0.05
    13   1    -0.09   0.01  -0.01     0.67  -0.04   0.11     0.21   0.00   0.05
    14   8    -0.02  -0.07   0.02    -0.01  -0.00   0.01    -0.09   0.00  -0.11
    15   1    -0.29   0.09  -0.34    -0.05   0.00  -0.10    -0.05   0.07   0.24
    16   1     0.30   0.14   0.08     0.06  -0.00  -0.11    -0.20   0.02   0.11
    17   8    -0.01   0.01   0.00     0.03  -0.01  -0.00    -0.24   0.01   0.05
    18   1    -0.01   0.01   0.00     0.03  -0.01  -0.01    -0.20  -0.01   0.02
    19   1    -0.01   0.01  -0.01     0.03  -0.00   0.02    -0.23   0.01   0.01
                     25                     26                     27
                      A                      A                      A
 Frequencies --    600.1457               629.3129               662.1471
 Red. masses --      1.1669                 1.8197                 1.5873
 Frc consts  --      0.2476                 0.4246                 0.4100
 IR Inten    --    685.0731               211.2495               198.4502
  Atom  AN      X      Y      Z        X      Y      Z        X      Y      Z
     1  80     0.00  -0.00   0.00    -0.02   0.00   0.01    -0.01   0.00   0.00
     2   8     0.05  -0.06  -0.01     0.03  -0.06  -0.00    -0.04   0.01  -0.00
     3   1    -0.29   0.45   0.02    -0.25   0.33   0.01     0.19  -0.25   0.01
     4   1    -0.28   0.42   0.04    -0.23   0.35   0.03     0.14  -0.32   0.01
     5   8    -0.04  -0.05   0.02     0.03   0.06  -0.03    -0.05  -0.02   0.00
     6   1     0.21   0.35  -0.16    -0.23  -0.35   0.16     0.13   0.33  -0.13
     7   1     0.23   0.37  -0.15    -0.24  -0.36   0.14     0.18   0.28  -0.10
     8   8    -0.01   0.00  -0.00     0.14  -0.02  -0.01     0.02   0.01   0.00
     9   1    -0.01  -0.00  -0.01     0.18  -0.04  -0.00     0.08  -0.03  -0.07
    10   1    -0.01   0.01  -0.01     0.11  -0.00  -0.04    -0.06  -0.05   0.05
    11   8     0.01  -0.00   0.00    -0.00   0.00  -0.00    -0.00  -0.00  -0.00
    12   1    -0.10   0.02  -0.02     0.03  -0.03   0.01     0.00  -0.01   0.00
    13   1    -0.11  -0.00  -0.03     0.04   0.01   0.03    -0.01   0.00   0.00
    14   8     0.01   0.00   0.00    -0.03  -0.01  -0.06     0.01  -0.03  -0.06
    15   1     0.01   0.00   0.01    -0.03   0.08   0.22    -0.04   0.18   0.42
    16   1     0.01   0.00   0.01    -0.07   0.05   0.19     0.00   0.14   0.46
    17   8     0.01   0.01  -0.00     0.11  -0.01  -0.02     0.16  -0.01  -0.03
    18   1     0.08  -0.03  -0.02     0.12  -0.02  -0.03     0.09   0.04   0.00
    19   1    -0.07  -0.03   0.01     0.14   0.02  -0.02     0.09  -0.04   0.02
                     28                     29                     30
                      A                      A                      A
 Frequencies --    676.7112               972.2007              1166.5627
 Red. masses --      1.6411                 1.0579                 1.0495
 Frc consts  --      0.4428                 0.5891                 0.8415
 IR Inten    --    209.5771                44.5900               101.0611
  Atom  AN      X      Y      Z        X      Y      Z        X      Y      Z
     1  80     0.01  -0.00  -0.01     0.00   0.00   0.00     0.00   0.00  -0.00
     2   8     0.02   0.00   0.00    -0.00  -0.00  -0.00     0.01  -0.01   0.02
     3   1    -0.08   0.11  -0.00     0.00  -0.00   0.00    -0.08  -0.09  -0.03
     4   1    -0.06   0.16  -0.01    -0.00   0.00  -0.00     0.02   0.12  -0.05
     5   8     0.03   0.00   0.00    -0.00   0.00  -0.00    -0.01  -0.02  -0.02
     6   1    -0.06  -0.17   0.06    -0.00  -0.00  -0.00    -0.03   0.13  -0.00
     7   1    -0.08  -0.14   0.05     0.00   0.00  -0.00     0.08  -0.05   0.07
     8   8    -0.11   0.04   0.02    -0.04  -0.02  -0.02    -0.00  -0.00   0.00
     9   1    -0.02  -0.01  -0.11    -0.37   0.28   0.16    -0.01  -0.00   0.00
    10   1    -0.21  -0.07   0.12     0.85  -0.00   0.06     0.01  -0.00   0.00
    11   8    -0.01   0.00  -0.00    -0.00   0.00   0.00     0.00  -0.00   0.00
    12   1     0.09  -0.02   0.02     0.00   0.01   0.00    -0.02   0.00  -0.00
    13   1     0.08  -0.00   0.02     0.01  -0.00  -0.00    -0.02   0.00  -0.00
    14   8     0.04  -0.04  -0.06    -0.00  -0.02  -0.02    -0.00   0.00  -0.00
    15   1    -0.03   0.23   0.53    -0.07   0.05   0.01    -0.00   0.00   0.00
    16   1     0.07   0.19   0.61     0.06   0.06   0.11     0.00   0.00  -0.00
    17   8    -0.13   0.00   0.03     0.00  -0.00  -0.00    -0.00  -0.03   0.01
    18   1    -0.08  -0.02  -0.00     0.01  -0.01  -0.00    -0.45   0.20  -0.44
    19   1    -0.08   0.02  -0.01    -0.01  -0.00  -0.00     0.46   0.41   0.33
                     31                     32                     33
                      A                      A                      A
 Frequencies --   1291.3042              1336.3495              1405.4633
 Red. masses --      1.0374                 1.0629                 1.0674
 Frc consts  --      1.0192                 1.1184                 1.2422
 IR Inten    --      7.9710               281.5994               327.7387
  Atom  AN      X      Y      Z        X      Y      Z        X      Y      Z
     1  80     0.00   0.00  -0.00     0.00  -0.00   0.00     0.00   0.00   0.00
     2   8     0.01  -0.01  -0.02     0.00  -0.00  -0.02     0.00   0.00  -0.00
     3   1     0.00   0.11   0.02     0.02   0.11   0.02     0.00  -0.00  -0.00
     4   1    -0.06  -0.07   0.07    -0.05  -0.08   0.07    -0.00  -0.00   0.00
     5   8    -0.01   0.00   0.02     0.01  -0.01  -0.03     0.00  -0.00   0.00
     6   1     0.05  -0.06  -0.02    -0.08   0.12   0.03     0.00  -0.00   0.00
     7   1    -0.01   0.07  -0.05     0.03  -0.11   0.08     0.00   0.00  -0.00
     8   8     0.00  -0.00   0.00     0.00   0.00   0.00    -0.01   0.01  -0.04
     9   1    -0.01   0.01  -0.01    -0.00   0.00   0.00    -0.25  -0.51   0.76
    10   1     0.01   0.00  -0.00     0.00  -0.00   0.00    -0.07  -0.03  -0.02
    11   8     0.00   0.00   0.00     0.00  -0.00  -0.00    -0.00   0.00  -0.00
    12   1     0.00   0.00  -0.00    -0.01  -0.00  -0.00     0.01  -0.01   0.00
    13   1    -0.00  -0.00  -0.00     0.00   0.00   0.00    -0.00   0.00   0.01
    14   8    -0.00  -0.00  -0.00    -0.00  -0.00   0.00     0.03   0.03  -0.02
    15   1    -0.00  -0.00  -0.00     0.00   0.00   0.00     0.07   0.04   0.17
    16   1     0.00   0.00   0.00     0.00   0.00   0.00    -0.22  -0.11  -0.03
    17   8     0.00  -0.03  -0.00     0.00  -0.01  -0.05     0.00  -0.00  -0.00
    18   1    -0.45   0.25   0.58    -0.08   0.13   0.57    -0.00   0.01   0.01
    19   1     0.40   0.00  -0.44    -0.24   0.12   0.71     0.01  -0.01  -0.01
                     34                     35                     36
                      A                      A                      A
 Frequencies --   1562.3658              1714.8607              1724.6497
 Red. masses --      1.1224                 1.0807                 1.0880
 Frc consts  --      1.6142                 1.8725                 1.9067
 IR Inten    --   2871.2042               147.3747               170.8949
[...]
 207,0.20504032,-0.00062174,0.00007333,0.00022012,-0.09146335,-0.060953
 98,0.08494436,0.00946659,0.00974844,-0.02157855,0.08784995,0.05076952,
 0.00054102,-0.00013338,0.00061900,0.18083523,0.05612919,-0.28794545,0.
 03562625,0.01343136,-0.03265445,-0.21720104,-0.07052520,0.31788540,0.0
 0417496,-0.00070325,0.00124590,0.00240713,0.00143575,-0.00026213,-0.00
 033334,0.00043614,-0.00001561,-0.00028061,0.00083265,-0.00000190,0.362
 31210,-0.00772362,-0.00527585,-0.00152664,-0.00088765,-0.00297745,0.00
 024326,-0.00015159,0.00040004,0.00029532,-0.00011739,0.00047880,-0.000
 36682,-0.17252204,0.17720325,-0.00043630,-0.00121187,-0.00172547,-0.00
 035209,-0.00067596,0.00055807,-0.00005014,0.00022301,-0.00012832,-0.00
 009127,-0.00027246,-0.00033841,-0.05816311,-0.11388847,0.66809608,-0.0
 0012659,0.00057232,0.00067616,-0.00019886,0.00009767,-0.00011434,0.000
 09075,-0.00009352,-0.00001697,0.00016622,-0.00008197,0.00008002,-0.194
 12172,0.04173645,0.23857843,0.18404827,0.00069336,0.00031757,-0.000330
 13,-0.00081745,0.00032003,0.00034560,0.00016492,-0.00022096,-0.0001585
 8,0.00013399,-0.00069950,-0.00004876,0.04863704,-0.03431121,-0.0365509
 9,-0.04386350,0.02483017,0.00058061,0.00017271,0.00063694,-0.00014401,
 0.00042922,-0.00024524,0.00008388,-0.00017719,0.00003004,0.00009754,-0
 .00007765,0.00023478,0.18123540,-0.01552856,-0.33298526,-0.21522125,0.
 02187930,0.36420163,0.00038048,0.00082511,-0.00063865,-0.00028475,0.00
 007393,-0.00001702,0.00013012,-0.00009339,-0.00004025,0.00009933,-0.00
 013761,0.00005114,-0.14548236,0.11592061,-0.18448799,0.01076113,-0.009
 77408,0.03239393,0.13475928,0.00068332,0.00050335,-0.00015221,-0.00058
 579,0.00044147,-0.00017541,0.00017578,-0.00038484,-0.00000167,0.000142
 25,-0.00032524,0.00016998,0.09746649,-0.10332657,0.15367508,0.00401412
 ,0.00788215,-0.00556344,-0.10624195,0.09730026,-0.00062387,-0.00022456
 ,0.00031578,-0.00004786,-0.00023533,-0.00019191,-0.00001781,-0.0000692
 8,0.00013263,-0.00002178,0.00012993,0.00007417,-0.12968585,0.13386445,
 -0.31207560,-0.02704104,0.02211107,-0.03286120,0.15691384,-0.15555739,
 0.34102491,-0.14645516,-0.00839621,-0.03231561,-0.00097604,-0.00205160
 ,-0.00000386,-0.00002695,0.00030229,0.00024542,0.00015719,0.00021749,-
 0.00015047,-0.00125373,0.00247836,0.00043143,0.00015590,-0.00018918,-0
 .00021763,0.00000179,-0.00033026,0.00024098,0.33388786,0.01919511,-0.0
 1547328,0.01088077,-0.00015598,0.00067431,-0.00010207,0.00012607,-0.00
 010550,0.00000055,0.00011061,-0.00009259,0.00004136,0.00007212,0.00062
 878,0.00021971,-0.00012531,-0.00004491,-0.00006174,-0.00011189,-0.0000
 8386,0.00001304,-0.05935478,0.22013491,-0.05178785,0.00278338,-0.04516
 855,0.00003422,0.00024966,0.00016865,0.00009028,-0.00007506,-0.0000937
 4,-0.00011404,-0.00004193,-0.00012271,0.00001951,-0.00006815,0.0002327
 8,-0.00014079,0.00004415,-0.00013927,0.00008155,0.00008166,-0.00008241
 ,-0.00399018,-0.23778392,0.46214227,-0.01958116,0.00584610,-0.00727566
 ,0.00089321,0.00155486,0.00015761,-0.00004600,-0.00021284,-0.00023531,
 -0.00021880,-0.00015949,0.00003753,0.00102323,-0.00164309,-0.00011744,
 -0.00020628,0.00015633,0.00008093,-0.00006404,0.00023098,-0.00019785,-
 0.08314016,0.00284012,0.03574515,0.08346706,-0.00085611,0.00181448,-0.
 00163006,0.00006945,-0.00019313,-0.00001899,-0.00006671,0.00005100,0.0
 0000359,-0.00002676,0.00004647,0.00000417,-0.00007258,-0.00011045,0.00
 000211,0.00003084,0.00003026,0.00000177,0.00005513,0.00003553,-0.00000
 279,0.02772891,-0.04356929,-0.00389515,-0.00262545,0.07771825,-0.00144
 177,-0.00572542,0.01589339,-0.00063442,-0.00128993,-0.00018788,-0.0000
 4418,0.00017713,0.00022459,0.00017262,0.00013003,0.00000299,-0.0007401
 1,0.00138198,0.00004364,0.00016262,-0.00012154,-0.00003152,-0.00001688
 ,-0.00019597,0.00019313,0.01227615,0.01903281,-0.07897560,-0.00377834,
 -0.01222989,0.08218337,-0.00739690,0.00938551,-0.01633976,0.00008945,-
 0.00002955,0.00013296,-0.00000346,-0.00001205,-0.00003640,-0.00008734,
 -0.00000768,-0.00006532,0.00006285,-0.00018613,0.00002125,-0.00003641,
 0.00003736,-0.00002526,0.00001844,0.00004221,-0.00003030,-0.05591870,0
 .03609297,-0.03087907,0.01626758,-0.01849369,0.01618792,0.05440980,-0.
 00314113,0.00091376,-0.00140483,0.00004651,-0.00045315,0.00009127,-0.0
 0005639,0.00008804,-0.00001253,-0.00008691,0.00009272,-0.00004521,-0.0
 0014213,0.00009143,-0.00004951,0.00006823,0.00002201,0.00002027,0.0000
 2121,0.00000071,0.00003088,0.02873286,-0.17752656,0.23633207,0.0025169
 1,0.00232816,-0.00414618,-0.02949808,0.17360679,-0.00200832,0.00536129
 ,-0.00229040,0.00027209,0.00035435,-0.00011436,-0.00007081,-0.00003240
 ,-0.00000591,-0.00001317,-0.00001325,0.00010529,0.00026355,-0.00047108
 ,-0.00018380,0.00001263,0.00001840,0.00010520,-0.00003060,0.00005799,-
 0.00000216,-0.02092556,0.20939109,-0.31870355,-0.00763328,0.01841790,-
 0.01162595,0.02673151,-0.23054599,0.33187268,-0.00873628,-0.00028970,-
 0.00051367,-0.00042498,-0.00150039,0.00006627,-0.00006862,0.00018718,0
 .00010946,0.00000073,0.00012085,-0.00013209,-0.00130679,-0.00022178,0.
 00090733,-0.00000391,-0.00000901,-0.00029432,0.00085969,0.00003577,-0.
 00014535,0.00405650,0.00093069,-0.00155359,-0.00233822,-0.00219592,0.0
 0380421,-0.00009399,0.00036515,-0.00023416,0.04623388,-0.00439051,-0.0
 1310346,0.00283846,-0.00054239,-0.00087180,-0.00002123,0.00008435,0.00
 004318,0.00009647,0.00012030,0.00001025,-0.00005657,0.00008484,0.00203
 405,-0.00000646,-0.00011424,-0.00025515,-0.00001008,-0.00048077,-0.000
 43216,0.00012842,0.00343020,-0.00101225,0.00320898,-0.00208890,-0.0003
 4051,0.00045282,0.00059757,0.00021233,-0.00037638,0.05464834,0.4972224
 9,0.00264793,0.00180102,-0.01114229,0.00029510,0.00054806,0.00016887,0
 .00004800,-0.00000217,-0.00017277,-0.00009547,-0.00002472,-0.00002846,
 0.00049010,-0.00024636,0.00038670,-0.00018666,-0.00000891,-0.00008090,
 0.00013280,0.00000883,-0.00029943,-0.00340259,0.00337276,-0.00179816,0
 .00279873,-0.00065677,-0.00288752,-0.00068600,0.00039770,0.00044741,0.
 09471278,0.09698639,0.59778782,0.00253430,-0.00060470,0.00235401,0.000
 03379,0.00040971,-0.00007942,0.00002667,-0.00011133,0.00001863,0.00003
 280,-0.00005815,0.00005807,0.00035323,0.00029586,-0.00062041,0.0000428
 6,-0.00000062,0.00015563,-0.00053651,-0.00001952,0.00027785,-0.0006142
 7,0.00002133,0.00043344,0.00103336,0.00009773,-0.00124484,0.00010209,-
 0.00002178,0.00001373,-0.02293738,-0.00346880,-0.07213345,0.01484590,0
 .00067335,0.00201457,0.00317285,0.00005359,0.00000522,-0.00011465,-0.0
 0008218,-0.00002331,0.00006583,0.00000207,0.00000974,0.00003688,-0.000
 07134,-0.00046308,-0.00003364,0.00004299,0.00005654,0.00000628,0.00013
 316,0.00019476,-0.00000055,0.00090795,-0.00111142,0.00069678,-0.000573
 47,0.00023002,0.00092303,0.00029691,-0.00011112,-0.00001139,0.00697245
 ,-0.05562612,0.07761568,0.00153057,0.05610839,-0.00032950,0.00154816,-
 0.00122504,-0.00010034,-0.00031263,-0.00004455,-0.00002730,0.00001791,
 0.00006637,0.00000788,0.00002434,-0.00000078,-0.00037899,-0.00017093,0
 .00011713,0.00004225,0.00003404,-0.00003056,0.00021762,0.00006686,0.00
 006385,0.00022533,-0.00004277,-0.00009893,-0.00030249,0.00014725,0.000
 11692,-0.00004919,-0.00001062,0.00006160,-0.07349520,0.01269759,-0.474
 91981,0.07889489,-0.02721742,0.49837043,0.00212084,-0.00263945,0.00052
 563,0.00003014,0.00030851,-0.00002809,0.00003135,-0.00006589,-0.000015
 06,0.00002593,-0.00005834,0.00003287,0.00075993,0.00094196,-0.00023983
 ,-0.00013059,-0.00011359,0.00011701,-0.00055270,-0.00023993,0.00002226
 ,-0.00129897,-0.00049879,0.00032431,0.00094602,0.00087766,-0.00078367,
 0.00000934,-0.00006295,0.00002320,-0.01673959,-0.04517061,-0.02501429,
 0.00674550,-0.00948302,-0.00499705,0.01002021,-0.00070193,-0.00211310,
 -0.00095011,0.00008044,0.00011861,-0.00002022,-0.00002114,-0.00001326,
 -0.00000124,-0.00001098,0.00000002,0.00001388,0.00015679,-0.00023942,-
 0.00008396,0.00002099,0.00007007,0.00002105,-0.00001132,0.00011906,0.0
 0002369,0.00032500,0.00031926,0.00028119,0.00018100,-0.00051029,0.0000
 1888,0.00013661,0.00012817,0.00007728,-0.05925552,-0.42543492,-0.18062
 586,0.00239486,-0.00130096,0.01319263,0.05697419,0.42871635,0.00058768
 ,0.00163222,0.00344686,0.00004095,0.00012295,-0.00005114,-0.00001075,-
 0.00001789,0.00002117,0.00000719,0.00000486,0.00003694,-0.00014559,-0.
 00035254,-0.00037992,0.00017162,0.00009794,0.00010387,-0.00006526,0.00
 002423,0.00016138,-0.00065876,-0.00043581,-0.00121039,-0.00024566,0.00
 037835,0.00051906,-0.00017818,0.00005113,0.00001383,-0.02201229,-0.115
 72197,-0.10970132,-0.00813064,-0.05420056,-0.02239040,0.02974570,0.167
 86425,0.12958422,0.00702778,-0.00221477,0.00531767,-0.00049468,-0.0008
 3066,-0.00004314,0.00005302,0.00011461,0.00010681,0.00011207,0.0000842
 5,-0.00003567,-0.00056307,0.00085620,0.00009665,0.00010648,-0.00007907
 ,-0.00005685,0.00005843,-0.00012045,0.00008919,-0.05228398,0.00388431,
 0.04178709,-0.00029685,-0.00584509,-0.00943403,-0.00660635,0.00109947,
 0.00162842,0.00045634,0.00119573,-0.00082126,-0.00012664,-0.00000535,0
 .00016443,-0.00040635,-0.00008915,-0.00000068,0.47353228,0.00006752,-0
 .00158105,0.00052232,-0.00006356,0.00022758,0.00000020,0.00007865,-0.0
 0005896,-0.00000571,0.00003760,-0.00004897,0.00000426,0.00007304,0.000
 15356,-0.00000710,-0.00003100,-0.00003859,0.00000214,-0.00006836,-0.00
 004791,0.00001269,0.00247239,0.01547713,-0.00217180,-0.00576517,-0.046
 09495,-0.00034527,0.00262150,-0.00041266,-0.00239274,0.00239195,0.0001
 2384,-0.00020851,-0.00061820,-0.00002237,-0.00014738,-0.00078694,0.000
 31084,-0.00000239,0.03131748,0.68699124,-0.00412230,0.00275349,-0.0075
 4170,0.00030734,0.00061368,0.00016928,0.00004668,-0.00007210,-0.000156
 73,-0.00010233,-0.00005528,-0.00003844,0.00035599,-0.00066903,0.000051
 86,-0.00009775,0.00005755,-0.00001861,0.00002783,0.00009110,-0.0001327
 7,0.04705157,-0.00281153,-0.01672400,-0.02502965,-0.00054641,-0.012861
 28,0.00155556,-0.00099965,0.00028747,-0.00184779,-0.00032874,0.0022893
 9,0.00112646,-0.00084412,-0.00026121,0.00025778,0.00006115,-0.00047780
 ,-0.03488797,0.09237137,0.08177411,-0.00060189,-0.00057982,0.00031333,
 0.00007545,0.00013829,-0.00000962,-0.00001443,-0.00002192,-0.00000760,
 -0.00001339,-0.00001471,0.00001214,0.00011556,-0.00005831,-0.00002728,
 -0.00002672,-0.00000130,0.00001358,-0.00004214,0.00000203,-0.00000237,
 -0.00154459,0.00180095,0.00292952,-0.00253422,-0.01095617,-0.00732977,
 -0.00030684,0.00010377,0.00017884,0.00137354,-0.00000973,0.00003266,-0
 .00034905,0.00007415,-0.00010663,-0.00051990,0.00029394,-0.00004229,-0
 .25580327,-0.23791651,-0.02432944,0.24712892,-0.00058568,0.00111498,-0
 .00079831,0.00007685,-0.00001546,0.00001218,-0.00003431,0.00001559,-0.
 00001138,-0.00003189,0.00001456,-0.00000260,0.00001792,-0.00020404,-0.
 00000866,0.00000979,0.00003786,0.00000467,0.00003529,0.00004698,-0.000
 01518,0.00547181,-0.00208013,-0.00328232,-0.00666486,0.00481833,0.0042
 8287,-0.00024358,0.00020388,0.00012715,-0.00117112,-0.00050526,0.00011
 678,0.00030385,0.00008447,0.00010026,0.00069430,-0.00015018,0.00004875
 ,-0.18086923,-0.28017194,-0.04048125,0.21989492,0.30862904,0.00026465,
 -0.00057314,0.00054809,-0.00002706,-0.00000267,-0.00004854,-0.00000447
 ,-0.00000704,0.00003055,0.00002025,-0.00000428,0.00002320,-0.00001209,
 0.00005112,-0.00005187,0.00001770,-0.00000272,0.00002598,-0.00002194,-
 0.00000913,0.00003386,0.00259143,-0.00242101,-0.00398315,0.00341182,0.
 00992953,0.00659360,0.00080478,0.00051398,0.00010921,0.00080875,0.0000
 0230,-0.00070263,-0.00055115,0.00019236,0.00006603,-0.00013148,0.00005
 144,0.00030538,-0.02689919,-0.05108658,-0.02537988,0.02592243,0.046878
 10,0.01576840,-0.00046049,0.00069916,0.00042667,0.00011717,0.00000739,
 -0.00002724,-0.00006523,0.00000574,0.00000376,-0.00003078,0.00000728,0
 .00001628,0.00006719,-0.00012746,-0.00003257,-0.00000636,0.00001529,0.
 00001637,-0.00000969,0.00002392,-0.00000206,-0.00348145,-0.00289332,0.
 00327591,0.00367635,0.01250641,-0.00642098,-0.00099232,0.00061691,0.00
 119304,-0.00019717,-0.00009721,-0.00011033,-0.00003315,0.00013709,0.00
 002822,0.00005903,-0.00000993,0.00003049,-0.16447247,0.20609824,0.0393
 6986,0.01305077,-0.03694259,-0.00618362,0.15280582,0.00068618,0.000261
 80,0.00040719,-0.00000382,-0.00022248,-0.00000515,-0.00004489,0.000051
 59,0.00001246,-0.00001597,0.00004049,-0.00000459,-0.00007913,0.0000213
 2,0.00000560,0.00002504,0.00001095,-0.00000328,0.00002766,0.00000923,0
 .00000592,-0.00576928,-0.00039889,0.00306025,0.00715772,0.00321415,-0.
 00336758,-0.00019000,0.00024193,0.00040949,-0.00038346,0.00002120,-0.0
 0000492,0.00015496,-0.00000137,0.00001589,0.00013498,-0.00004802,0.000
 00957,0.15118601,-0.37463643,-0.04868310,0.02727099,-0.03184102,-0.003
 59426,-0.18007125,0.40315678,0.00061270,-0.00015279,0.00067241,-0.0000
 2429,-0.00006382,-0.00007595,-0.00003122,0.00000647,0.00005001,0.00002
 246,0.00000075,0.00003180,-0.00003899,0.00003787,-0.00004123,0.0000205
 9,0.00000092,0.00002090,-0.00000386,0.00000056,0.00003182,0.00219113,0
 .00192282,-0.00277204,0.00098784,-0.00989328,0.00357171,0.00158513,-0.
 00028520,-0.00088111,-0.00015265,0.00006228,-0.00038198,-0.00009637,0.
 00017866,0.00013094,0.00009030,-0.00005127,0.00009331,0.02403454,-0.03
 654966,-0.02210499,0.00242269,-0.00712138,0.00669621,-0.03157129,0.051
 86385,0.01502558,-0.16627216,0.00796570,-0.06043505,-0.00409758,-0.030
 86050,0.00144846,-0.00148574,-0.00077492,0.00305249,0.00014287,-0.0010
 7122,-0.00266241,-0.01135893,0.03385941,0.00701982,-0.00050396,0.00215
 280,-0.00302955,-0.00117981,0.00032591,0.00346329,0.00262931,-0.002017
 05,0.00447970,0.00472702,-0.00028441,-0.00356404,0.00094469,-0.0009347
 0,0.00163033,-0.00253737,-0.00541083,0.00240986,-0.00053963,-0.0002180
 7,-0.00040744,-0.00069200,0.00007571,0.00099637,-0.00227647,0.00015139
 ,0.00168359,0.00030225,0.00023412,-0.00007099,0.00020806,-0.00031366,-
 0.00015340,0.39594843,-0.00349102,-0.03127589,-0.00432686,-0.02993516,
 -0.04393542,0.00534992,-0.00172883,-0.00346516,0.00437377,-0.00079404,
 -0.00637570,-0.00451467,0.03288482,-0.03553551,-0.01135547,0.00202481,
 -0.00629874,0.00355032,0.00147022,-0.00268917,-0.00418707,0.00507426,0
 .00666218,0.00112077,-0.00096275,0.00011768,0.00122935,-0.00093120,0.0
 0021990,-0.00055638,-0.00407083,-0.00082900,0.00159838,0.00099333,-0.0
 0061657,-0.00074511,0.00090796,0.00017046,0.00030803,0.00036587,0.0003
 2015,-0.00055397,0.00009267,-0.00027819,0.00015373,-0.00014057,-0.0001
 2018,0.00000163,-0.00416594,0.45957317,-0.03926331,0.00021089,-0.02928
 053,0.00060462,0.00321353,0.01267697,0.00139101,0.00300185,-0.00204415
 ,-0.00080074,-0.00207722,-0.00049540,0.00581902,-0.00956926,0.01062809
 ,-0.00089116,0.00137170,0.00030738,0.00176114,-0.00285319,-0.00293419,
 -0.00175120,-0.00097862,0.00708033,0.00096508,-0.00001759,-0.00209544,
 0.00130433,0.00017316,0.00034681,0.00080636,0.00031270,0.00128042,-0.0
 0105902,-0.00077726,0.00001827,0.00005728,-0.00003455,-0.00033928,-0.0
 0060722,0.00001513,0.00093611,-0.00003854,0.00010004,-0.00007560,-0.00
 009623,-0.00009000,-0.00011370,-0.00307854,0.02335712,0.08198579,-0.01
 839091,-0.01131912,-0.00173341,-0.01306901,0.01588155,0.00028642,0.001
 97468,-0.00206357,-0.00344423,-0.00058983,-0.00333727,0.00311969,-0.00
 642671,0.00464959,0.00169747,-0.00011540,0.00144701,0.00007120,0.00011
 504,0.00086423,0.00017507,0.00328793,0.00053588,-0.00026297,-0.0017391
 7,0.00010150,0.00144489,-0.00025480,0.00026380,-0.00050069,0.00079018,
 0.00045242,-0.00038915,-0.00030971,-0.00013152,0.00022015,-0.00025518,
 -0.00014980,0.00003479,0.00095177,-0.00006846,-0.00068032,-0.00013754,
 -0.00007491,0.00003625,-0.00009911,0.00013480,0.00005073,-0.10258007,-
 0.06777816,0.01231210,0.11246693,-0.00930120,0.00711903,0.00017914,0.0
 0551136,0.00140601,-0.00721231,0.00285735,0.00206529,-0.00423651,0.002
 92680,0.00775278,0.00563603,-0.00192785,0.00349231,-0.00012500,0.00045
 647,-0.00031801,-0.00030707,0.00036796,-0.00015450,0.00025044,0.004330
 26,-0.00119776,-0.00047272,-0.00308887,0.00028321,0.00256490,0.0000542
 9,0.00065557,-0.00073199,0.00281715,0.00208080,-0.00138329,-0.00058945
 ,0.00002002,0.00058911,-0.00044010,-0.00021004,-0.00022433,0.00168705,
 -0.00030470,-0.00126451,-0.00027114,-0.00004160,0.00003595,-0.00007274
 ,0.00034260,0.00014139,-0.05128955,-0.17685849,0.00946460,0.05104668,0
 .17010921,-0.00682760,-0.00548590,0.00039390,0.00212223,-0.00318733,-0
 .03270322,-0.00509006,-0.01132810,0.00434684,0.00259696,0.00848305,0.0
 0228293,0.00107012,-0.00046656,-0.00071900,0.00031870,-0.00081138,0.00
 013583,0.00017325,0.00026049,0.00030163,-0.00014911,0.00061769,0.00026
 605,0.00002774,0.00008477,-0.00004641,-0.00014364,-0.00009538,0.000073
 41,-0.00001012,0.00005617,0.00014069,-0.00004673,0.00006254,0.00007956
 ,0.00003261,0.00005485,-0.00001420,-0.00006502,-0.00001243,-0.00004696
 ,0.00001765,-0.00000060,0.00003055,0.00002773,-0.00000634,0.00004238,0
 .01876400,0.03020827,-0.03607025,-0.00832161,-0.00922849,0.05877345,-0
 .01945987,0.00801995,-0.00036964,-0.00611096,-0.00595706,0.00113312,0.
 00026572,-0.00068031,0.00009700,0.00010341,-0.00156752,-0.00016134,-0.
 01014891,-0.01709939,-0.00413395,0.00010521,0.00140973,0.00414280,0.00
 096829,0.00353089,-0.00336633,0.00281752,-0.00045304,-0.00047219,-0.00
 186896,-0.00004475,0.00138461,-0.00020714,0.00010924,-0.00053075,0.001
 61346,0.00116023,-0.00072876,-0.00030414,-0.00025933,0.00039337,-0.000
 15300,-0.00038978,-0.00012469,0.00103196,0.00000842,-0.00068511,-0.000
 15252,-0.00012066,0.00002391,-0.00013616,0.00009312,0.00005396,-0.1113
 7892,0.07018456,0.02256503,0.02438092,-0.00507446,-0.00449710,0.118634
 10,0.00844665,0.01280829,0.00117279,0.00096232,0.00285055,0.00069907,-
 0.00037469,-0.00017965,-0.00029736,-0.00044956,-0.00054116,0.00023068,
 -0.00657928,-0.00205995,0.01014401,-0.00479020,0.00860944,-0.00435871,
 -0.00201090,0.00091076,0.00372162,-0.00538047,-0.00120012,-0.00006784,
 0.00330088,0.00013107,-0.00277203,0.00032703,-0.00030189,0.00091666,0.
 00062820,-0.00333750,0.00071591,-0.00070965,0.00055258,0.00021281,-0.0
 0127996,0.00006734,0.00041320,-0.00173723,-0.00018583,0.00136135,0.000
 15789,0.00032212,-0.00010767,0.00023763,-0.00010365,-0.00009980,0.0525
 7583,-0.15878550,-0.02482306,0.00954534,-0.01624173,-0.00920533,-0.052
 86983,0.15668483,-0.00588426,0.00619672,0.00134026,0.00121037,0.001192
 16,-0.00063831,0.00015978,-0.00027970,0.00023928,0.00021426,0.00073309
 ,0.00032759,-0.00105524,0.00745040,-0.03148546,0.00362924,-0.00792766,
 0.00059002,-0.00643064,0.01007162,0.00624650,-0.00168849,-0.00085513,-
 0.00001758,0.00060325,-0.00007851,-0.00063078,0.00010970,-0.00001537,0
 .00038431,-0.00082392,-0.00032116,-0.00038606,0.00062932,0.00024871,-0
 .00011981,-0.00001949,0.00010691,0.00027843,-0.00037378,0.00000146,0.0
 0023614,0.00005068,0.00005087,0.00001059,0.00005601,-0.00003099,0.0000
 0395,0.02845349,-0.04501177,-0.04181164,-0.00411637,0.00632465,0.00273
 283,-0.01472392,0.02214372,0.06269973\\0.00740088,0.01073881,-0.008359
 59,-0.01144931,0.00272359,-0.00088478,0.00567497,-0.00364548,-0.010058
 08,0.00138498,-0.00210771,0.01154635,-0.01135517,-0.00455877,-0.000183
 45,0.00226825,0.00161941,0.01172293,0.00417575,0.00522306,-0.01025647,
 0.00504340,-0.01471317,-0.00428810,-0.00693063,0.00942322,-0.00160579,
 0.00297583,0.00147159,0.01061538,-0.00814056,-0.00119137,0.00243147,0.
 00031077,-0.00750447,-0.01051348,0.00479643,0.00533390,0.01065983,0.01
 007219,-0.00474555,0.01275450,-0.00091056,0.01135653,-0.00444528,-0.00
 225632,-0.00873319,-0.00769519,-0.01409155,-0.00266175,0.01516637,0.00
 510717,0.00271895,-0.00809196,0.00592348,-0.00074759,-0.00851465\\\@


 THE MOLECULE ALSO HAS A BODY.  WHEN THIS BODY IS HIT, THE MOLECULE
 FEELS HURT ALL OVER -- A. KITAIGORODSKI
 Job cpu time:       0 days  0 hours 51 minutes 41.2 seconds.
 Elapsed time:       0 days  0 hours  1 minutes 52.0 seconds.
 File lengths (MBytes):  RWF=   2793 Int=      0 D2E=      0 Chk=      3 Scr=      1
 Normal termination of Gaussian 16 at Wed May 11 21:54:54 2022.
