
 *******************************************************************************
 *                                                                             *
 *  -------------------------------------                                      *
 *   Amsterdam Density Functional  (ADF)         2013.01   April 2, 2013       *
 *  -------------------------------------                                      *
 *                                               Build 201304112106            *
 *                                                                             *
 *                                                                             *
 *                            =====================                            *
 *                            |                   |                            *
 *                            |     D I R A C     |                            *
 *                            |                   |                            *
 *                            =====================                            *
 *                                                                             *
 *                                                                             *
 *   Online information and documentation:  http://www.scm.com                 *
 *   E-mail:  support@scm.com   info@scm.com                                   *
 *                                                                             *
 *   Scientific publications using ADF results must be properly referenced     *
 *   See the User Manuals (or the web site) for recommended citations          *
 *   The terms and conditions of the End User License Agreement apply to       *
 *   the use of ADF, http://www.scm.com/Sales/LicAgreement.html                *
 *                                                                             *
 ****************************  x86_64_linux_intel  *****************************
 
 Licensed to: Prof. Cacier Hadad / University of Antioquia / Medellin / COLOMBIA
 SCM User ID: u15319
  
 DIRAC 2013.01  RunTime: Jan01-2013 00:00:00  Nodes: 1  Procs: 1

 Temporary files are created in /home/scratch/adf/kid_0.sLTQcX

1
 HYDROGEN ATOM RELATIVISTIC, Point Nuc, A and c from libtc   
 N J RN H ZN XION ANUC CLIGHT
 5000    1100.00000000197.36710137  1.00000000  0.00000000    1.007825  0.1370360E+03
  PH   PHI     EPS        DEL        DELRVR
  0.30  0.30     2500.00  0.00001000  0.00001000
 IDIRC  NC1  NDEBU NPRIN  IPUN IRCOR IWCOR
   1   300     0     0     0     0     0
   XALPHA      XLATTER      RNUC
  0.70000000  0.00000000  0.00000000 Point Charge
   XN   XL   XJ      XE          XZ      XDELL
  1.0  0.0  0.5      -1.000       1.000     0.00000
 ICORP=  0  NPCL=  0  DEMP=0.00  PEPS=0.000000
 R(1)=  0.1000000E-08 D=  0.1005080E+01 RNUC=  0.0000000E+00
 converged at cycle   32  DENSITY AVERAGING    0.2400
  MAXIMUM ERROR IN R.V(R) IS   0.79874357E-05
 Q,EY,EV,EZ,ESUM,ETOT,RHO  0.100000E+01 -0.266614E+00 -0.619969E+00 -0.910779E+00 -0.203940E+00 -0.415998E+00  0.337036E-17


 DIRAC CALCULATION
1                    HYDROGEN ATOM RELATIVISTIC, Point Nuc, A and c from libtc


 EXCHANGE COEFFICIENT=  0.7000000           TAIL CORRECTION=  0.           NUCLEAR RADIUS=  0.000E+00
0                       ORBITAL    N    L    J     ELECTRONS     EIGENVALUE                DELTA OF EIGENV.

                          1S1/2  1.0  0.0  0.5     1.000       -0.2039397E+00                 0.2720093E-06


                                        NUCLEAR CHARGE=    1.000000
                            INTEGRAL OF CHARGE DENSITY=    1.000000
                           SUM OF THE ORBITAL ENERGIES=     -0.2039
                                          TOTAL ENERGY=     -0.4160
                                        KINETIC ENERGY=      0.4160
                             NUCLEAR ATTRACTION ENERGY=     -0.9108
                             ELECTRON REPULSION ENERGY=      0.2787
                                       EXCHANGE ENERGY=     -0.2000

 *******************************************************************************

                             D I R A C   E X I T
 NORMAL TERMINATION



 =================
 Timing Statistics
 =================
  
 Total Used :                     CPU=        0.07      System=        0.02     Elapsed=        0.10

 Calls  Section                     ( Mean, Percentage )
 ---------------------------------------------------------------------------------------------------
     2  ><      ................      0.00    0.00             0.00    0.03             0.00    0.01
     1  EXIT PROCEDURE .........      0.07  100.00             0.02   99.97             0.10   99.99


 Currently Open Files (EXIT00)
 ====================

 Unit    Access Format  Status   Type       Ident (file)
 -------------------------------------------------------
   3      SEQ    FORM   TRANSP  NORMAL      LOGFILE
                                          ( logfile )


 Buffered I/O statistics
 =======================
 Memory available:                     67108864
 Number of records fitting in memory:     16131
 Input : 100.0% of                            0  *4k bytes
 Output: 100.0% of                            0  *4k bytes
 Records from serial files evicted:           0
                    others evicted:           0
 Hash table lookups:          0 with          0 conflicts (100.00%)
(INPUT FILE)
Create H   file=/home/danian/Documents/programas/adf2013.01/atomicdata/ZORA/QZ4P/H
 XC
 GGA PBE
End
relativistic ZORA
Corepotentials t12.rel
End Input

 *******************************************************************************
 *                                                                             *
 *  -------------------------------------                                      *
 *   Amsterdam Density Functional  (ADF)         2013.01   April 2, 2013       *
 *  -------------------------------------                                      *
 *                                               Build 201304112215            *
 *                                                                             *
 *                                                                             *
 *                              =================                              *
 *                              |               |                              *
 *                              |     A D F     |                              *
 *                              |               |                              *
 *                              =================                              *
 *                                                                             *
 *                                                                             *
 *   Online information and documentation:  http://www.scm.com                 *
 *   E-mail:  support@scm.com   info@scm.com                                   *
 *                                                                             *
 *   Scientific publications using ADF results must be properly referenced     *
 *   See the User Manuals (or the web site) for recommended citations          *
 *   The terms and conditions of the End User License Agreement apply to       *
 *   the use of ADF, http://www.scm.com/Sales/LicAgreement.html                *
 *                                                                             *
 ********************  x86_64_linux_intel / platform_mpi  **********************
 
 Licensed to: Prof. Cacier Hadad / University of Antioquia / Medellin / COLOMBIA
 SCM User ID: u15319
  
 ADF 2013.01  RunTime: Jan01-2013 00:00:00  Nodes: 1  Procs: 1

 Temporary files are created in /home/scratch/adf/kid_0.AHCbQ6

 Hydrogen (QZ, all electron, 5S 2P 2D)



 ===========================
 A T T A C H E D   F I L E S
 ===========================
  
 CREATE - Data File:    /home/danian/Documents/programas/adf2013.01/atomicdata/ZORA/QZ4P/H
                        Hydrogen (QZ, all electron, 5S 2P 2D)
 Core Potentials:
         file : t12.rel



 ===============================
 M O D E L   P A R A M E T E R S
 ===============================
  
 DENSITY FUNCTIONAL POTENTIAL (scf)
    LDA:                               PW92                                    == Not Default ==
    Gradient Corrections:              PBEc PBEx                               == Not Default ==

 SPIN  (restricted / unrestr.)
    Molecule:                          Restricted                               

 OTHER ASPECTS
    Relativistic Corrections:          scalar (ZORA,SAPA)                      == Not Default ==

    Nuclear Charge Density Model:      Point Charge Nuclei                                                                                                                                                                                     
    Core Treatment:                    Frozen Orbital(s)                        

    Hyperfine or Zeeman Interaction:   ---                                      



 =====================================
 S Y M M E T R Y ,   E L E C T R O N S
 =====================================
  
 Symmetry: ATOM

 Irreducible Representations, including subspecies
 -------------------------------------------------
 S
 P:x  P:y  P:z
 D:z2  D:x2-y2  D:xy  D:xz  D:yz
 F:z3  F:z  F:xyz  F:z2x  F:z2y  F:x  F:y


 Configuration of Valence Electrons
 ==================================

          Occupation Numbers
          -------------------------------------------------
 S        1
 P        0
 D        0
 F        0
          -------------------------------------------------

 Total:   1

 Net Charge: 0 (Nuclei minus Electrons)

 Preset values for MO occupations will be applied through SCF cycle no. 1000000
 Thereafter, the program will assign electrons to MOs that are spatially
 similar to the occupied MOs in a "reference" cycle ("KeepOrbitals").
 The reference cycle is always the PREVIOUS cycle: it will evolve with
 the SCF procedure.



 ================================
 (Slater-type)  F U N C T I O N S  ***  (Basis and Fit)  ***
 ================================
  

 Atom Type    1  (H)
 ==============

 Valence Basis Sets:   9
 -----------------------
   1 S    3.300000
   1 S    2.000000
   1 S    1.400000
   1 S    1.000000
   1 S    0.710000
   2 P    2.000000
   2 P    1.000000
   3 D    2.500000
   3 D    1.500000

 Charge Fitting Sets (for the computation of the Coulomb Potential):  22
 -----------------------------------------------------------------------
   1 S    6.600000
   1 S    4.620000
   1 S    3.230000
   1 S    2.260000
   1 S    1.580000
   1 S    1.100000
   1 S    0.770000
   2 S    1.000000
   2 P    5.300000
   2 P    3.870000
   2 P    2.820000
   2 P    2.060000
   2 P    1.500000
   3 D    5.800000
   3 D    4.070000
   3 D    2.850000
   3 D    2.000000
   4 F    4.500000
   4 F    3.350000
   4 F    2.500000
   5 G    5.000000
   5 G    3.000000


 BAS: List of all Elementary Cartesian Basis Functions
 =====================================================

 The numbering in the list below (to the right of the function characteristics) is referred
 to in print-outs of MO eigenvectors and Mulliken populations in the BAS representation
 (as contrasted to the SFO representation).

 Notes:
 1. The functions are characterized by a polynomial prefactor (powers of x,y,z and r) and
    an exponential decay factor alpha.
 2. Since the basis sets are specific for an atom TYPE, the individual functions occur on
    all atoms of that type.
 3. The word 'Core' in the left margin signals that it is a Core Function (CF) : not a
    degree of freedom in the valence set, but only used to ensure orthogonalization of
    the other valence basis functions on the frozen Core Orbitals.


 (power of) X  Y  Z  R     Alpha  on Atom
            ==========     =====     ==========

 H                                    1
                                  ---------------------------------------------------------------------------
            0  0  0  0     3.300      1
            0  0  0  0     2.000      2
            0  0  0  0     1.400      3
            0  0  0  0     1.000      4
            0  0  0  0     0.710      5
            1  0  0  0     2.000      6
            0  1  0  0     2.000      7
            0  0  1  0     2.000      8
            1  0  0  0     1.000      9
            0  1  0  0     1.000     10
            0  0  1  0     1.000     11
            2  0  0  0     2.500     12
            1  1  0  0     2.500     13
            1  0  1  0     2.500     14
            0  2  0  0     2.500     15
            0  1  1  0     2.500     16
            0  0  2  0     2.500     17
            2  0  0  0     1.500     18
            1  1  0  0     1.500     19
            1  0  1  0     1.500     20
            0  2  0  0     1.500     21
            0  1  1  0     1.500     22
            0  0  2  0     1.500     23

 Total number of charge fitting functions (nprimf)       107
 Total number of Cartesian basis functions (naos)         23
 Total number of Cartesian core functions  (ncos)          0



 BAS: List of all Elementary Cartesian Basis Functions
 =====================================================

 The numbering in the list below (to the right of the function characteristics) is referred
 to in print-outs of MO eigenvectors and Mulliken populations in the BAS representation
 (as contrasted to the SFO representation).

 Notes:
 1. The functions are characterized by a polynomial prefactor (powers of x,y,z and r) and
    an exponential decay factor alpha.
 2. Since the basis sets are specific for an atom TYPE, the individual functions occur on
    all atoms of that type.
 3. The word 'Core' in the left margin signals that it is a Core Function (CF) : not a
    degree of freedom in the valence set, but only used to ensure orthogonalization of
    the other valence basis functions on the frozen Core Orbitals.


 (power of) X  Y  Z  R     Alpha  on Atom
            ==========     =====     ==========

 H                                    1
                                  ---------------------------------------------------------------------------
            0  0  0  0     3.300      1
            0  0  0  0     2.000      2
            0  0  0  0     1.400      3
            0  0  0  0     1.000      4
            0  0  0  0     0.710      5
            1  0  0  0     2.000      6
            0  1  0  0     2.000      7
            0  0  1  0     2.000      8
            1  0  0  0     1.000      9
            0  1  0  0     1.000     10
            0  0  1  0     1.000     11
            2  0  0  0     2.500     12
            1  1  0  0     2.500     13
            1  0  1  0     2.500     14
            0  2  0  0     2.500     15
            0  1  1  0     2.500     16
            0  0  2  0     2.500     17
            2  0  0  0     1.500     18
            1  1  0  0     1.500     19
            1  0  1  0     1.500     20
            0  2  0  0     1.500     21
            0  1  1  0     1.500     22
            0  0  2  0     1.500     23
1
 ***************************************************************************************************



                                              ***********************
                                              *  T E C H N I C A L  *
                                              ***********************
  



 =============================================================
 P A R A L L E L I Z A T I O N  and  V E C T O R I Z A T I O N
 =============================================================
  
 Nr of parallel processes:                                1
 Maximum vector length in NumInt loops:                 128



 ===============
 I O  vs.  C P U  ***  (store numerical data on disk or recalculate)  ***
 ===============
  
 Basis functions:   recalculate when needed
 Fit functions:     recalculate when needed

 IO buffersize (Mb):                                     64.000000



 =====================
 S C F   U P D A T E S
 =====================
  
 Max. nr. of cycles:                               100
 Convergence criterion:                              0.0000000100
   secondary criterion:                              0.0000000100

 Mix parameter (when DIIS does not apply):           0.2000000000
 Special mix parameter for the first cycle:          1.0000000000


 DIIS (Direct Inversion in Iteration Space)
    Replace damping when SCF Error is below:         0.5000000000
    Apply anyway after SCF cycle:
                                                     5
    (Max.) nr. of expansion vectors:                10

    Upperbound on expansion coefficients:            5.0000000000
    (when exceeded, IterationSpace is re-built)
    2nd Upperbound on coefficients:                 25.0000000000
    (when exceeded, simple damping will be used)
 Automatic ElectronSmearing (in case of problematic SCF convergence) disabled



 =================
 P R E C I S I O N  ***  (General: NumInt, NeglectFunctionTails, ...)  ***
 =================
  

 NumInt:           Target precision:                10.0000000000
 -------           Initial precision:               10.0000000000
                   Min. precision (optimization):   10.0000000000

 Neglect Functions:          Basis functions:        0.1000000000E-11
 ------------------          Fit functions:          0.1000000000E-11



 ===========================
 L I N E A R   S C A L I N G
 ===========================
  

 Cut-off radii density fit:                        0.1000000000E-13
 Overlap cut-off criterion AO matrix elements:     0.1000000000E-11
 Cut-offs for Coulomb potential and fitted density:0.1000000000E-13
 Cut-off criterion for Coulomb multipole terms:    0.1000000000E-13
 Progressive Convergence parameter:                 0.000000000    
1
 ***************************************************************************************************



                                            ***************************
                                            *  C O M P U T A T I O N  *
                                            ***************************
  

 Number of elements of the density matrix on this node (used, total):       276       276



 ====================================================
 Numerical Integration : Voronoi Polyhedra (Te Velde)
 ====================================================
  
 General Accuracy Parameter :                         10.00

 Symmetry used in the points section:  ATOM  


 Summary of the Symmetry Unique Points:
 --------------------------------------
    Nr. of used Symmetry Operators                     1

    Points in the Atomic Spheres                      44
    Points in the Atomic Polyhedra                     0
    Points in the Outer Region                         0
    ----------------------------------------------------
    Total                                             44

    Sum of Weights                                 33854.777883

 Total nr. of points:         44
 Nr. of blocks:                1
 Block length:                44
 Nr. of dummy points:          0


 Test of Precision of the Numerical Integration Grid
 ===================================================

 Integral of the Total Core Density:                   0.00000000000000



 =====
 S C F
 =====
  

 CYCLE    1
 orbitals (Q,E):
 ---------------
 S :1...5            ( 1.00    -0.5000)  ( 0.00    -0.1102)  ( 0.00     0.2912)  ( 0.00     2.1458)
                     ( 0.00    15.1140)
 P :1...2            ( 0.00    -0.0467)  ( 0.00     1.6698)
 D :1...2            ( 0.00     0.4090)  ( 0.00     3.3827)

 CYCLE    2
 d-Pmat  mean:  0.40E-01
 imax=      4: -0.73E+00
 orbitals (Q,E):
 ---------------
 S :1...2            ( 1.00    -0.2213)  ( 0.00     0.0617)
 P :1...1            ( 0.00     0.1820)
 D :1...1            ( 0.00     0.6395)

 CYCLE    3
 d-Pmat  mean:  0.48E-02
 imax=      4:  0.66E-01
 orbitals (Q,E):
 ---------------
 S :1...2            ( 1.00    -0.2392)  ( 0.00     0.0523)
 P :1...1            ( 0.00     0.1713)
 D :1...1            ( 0.00     0.6290)

 CYCLE    4
 d-Pmat  mean:  0.47E-03
 imax=      4: -0.74E-02
 orbitals (Q,E):
 ---------------
 S :1...2            ( 1.00    -0.2386)  ( 0.00     0.0522)
 P :1...1            ( 0.00     0.1716)
 D :1...1            ( 0.00     0.6293)

 CYCLE    5
 d-Pmat  mean:  0.13E-04
 imax=      4:  0.20E-03
 orbitals (Q,E):
 ---------------
 S :1...2            ( 1.00    -0.2386)  ( 0.00     0.0522)
 P :1...1            ( 0.00     0.1716)
 D :1...1            ( 0.00     0.6293)

 CYCLE    6
 d-Pmat  mean:  0.14E-06
 imax=      4:  0.26E-05
 orbitals (Q,E):
 ---------------
 S :1...2            ( 1.00    -0.2386)  ( 0.00     0.0522)
 P :1...1            ( 0.00     0.1716)
 D :1...1            ( 0.00     0.6293)

 CYCLE    7
 d-Pmat  mean:  0.24E-08
 imax=      4:  0.39E-07
 orbitals (Q,E):
 ---------------
 S :1...2            ( 1.00    -0.2386)  ( 0.00     0.0522)
 P :1...1            ( 0.00     0.1716)
 D :1...1            ( 0.00     0.6293)

 SCF CONVERGED

 CYCLE    8
1
 ***************************************************************************************************



                                                *******************
                                                *  R E S U L T S  *
                                                *******************
  
 *** Setting up for NEW gradients in focky
 *** Using FIT density in focky

 Scaled ZORA Orbital Energies, per Irrep and Spin:
 =================================================
                        Occup              E (au)              E (eV)       Diff (eV) with prev. cycle
                        -----      --------------------        ------       --------------------------
 S
               1        1.000     -0.23860414448782E+00        -6.493              -2.15E-10
               2        0.000      0.52240780773457E-01         1.422
               3        0.000      0.50128711414823E+00        13.641
               4        0.000      0.23892611828179E+01        65.015
               5        0.000      0.15295018626306E+02       416.199
 P
               1        0.000      0.17156247999749E+00         4.668
               2        0.000      0.19364620405874E+01        52.694
 D
               1        0.000      0.62928666110103E+00        17.124
               2        0.000      0.36544214463356E+01        99.442


 Partially Occupied:
               1 S                -0.23860414448782E+00
  
 LUMO :        2 S                 0.52240780773457E-01
  


 Orbital Energies, all Irreps
 ========================================

 Irrep        no.  (spin)   Occup              E (au)                E (eV)
 ---------------------------------------------------------------------------
 S             1             1.00       -0.23860414448782E+00        -6.4927
 S             2             0.00        0.52240780773457E-01         1.4215
 P             1             0.00        0.17156247999749E+00         4.6685
 S             3             0.00        0.50128711414823E+00        13.6407
 D             1             0.00        0.62928666110103E+00        17.1238
 P             2             0.00        0.19364620405874E+01        52.6938
 S             4             0.00        0.23892611828179E+01        65.0151
 D             2             0.00        0.36544214463356E+01        99.4419
 S             5             0.00        0.15295018626306E+02       416.1986


 All Electron Calculation, thus no Orbital Energies of the Core Orbitals are calculated



 =======================================
 M U L L I K E N   P O P U L A T I O N S
 =======================================
  
 The survey below gives for each atom:
 a) the total charge (Z minus electrons)
 b) the net spin polarization (nr of electrons spin-A minus spin-B)
 c) for each spin the atomic electron valence density (integrated) per L-value.

 Atom              Charge    Spin density          S         P         D         F
 ----              ------    ------------       ------    ------    ------    ------
 1 H               0.0000                       1.0000    0.0000    0.0000    0.0000

 Populations of individual BAS functions
 ----------------------------------------
 1 H           -0.0037  0.0405  0.0399  0.5670  0.3563  0.0000  0.0000  0.0000  0.0000  0.0000
                0.0000  0.0000  0.0000  0.0000  0.0000  0.0000  0.0000  0.0000  0.0000  0.0000
                0.0000  0.0000  0.0000

 Gross Charges per Atom (Z minus electrons)
 ==========================================
             0.0000
 Net Total:  0.00000000


 Atom-Atom Population Matrix (off-diagonal elements not doubled)
 ===============================================================

     1 :     1.0000



 =============
 Dipole Moment  ***  (Debye)  ***
 =============
  
 Vector   :         0.00000000      0.00000000      0.00000000
 Magnitude:         0.00000000

 This molecular dipole moment is calculated with analytic integration



 =========================================
 Quadrupole Moment (Buckingham convention)  ***  (a.u.)  ***
 =========================================
  
      quad-xx        quad-xy        quad-xz        quad-yy        quad-yz        quad-zz
      0.00000000     0.00000000     0.00000000     0.00000000     0.00000000     0.00000000

 This molecular quadrupole moment is calculated with analytic integration



 ===============================================================================
 Electrostatic potential at the Nuclei due to valence electrons and other nuclei
 ===============================================================================
  
         Atom                  Potential
         ----                  ---------
     1)   H                   0.94463948
 
 
 ========================
 No memory problems found
 ========================
 
 Maximum number of active allocate calls:         378
 
 *******************************************************************************

                             A D F   E X I T
 NORMAL TERMINATION



 =================
 Timing Statistics
 =================
  
 Total Used :                     CPU=        0.13      System=        0.04     Elapsed=        0.17

 Calls  Section                     ( Mean, Percentage )
 ---------------------------------------------------------------------------------------------------
     3  ><      ................      0.00    0.43             0.00    0.03             0.00    0.34
     1  INIT    ................      0.01    4.31             0.00    4.11             0.01    4.61
     1  GEOMET  ................      0.01    6.41             0.02   53.39             0.03   16.68
     1  INPUTA  ................      0.00    0.77             0.00    0.00             0.00    0.60
     1  MAINSY  ................      0.00    3.11             0.00    0.00             0.00    2.41
     1  SYMFIT  ................      0.00    0.21             0.00    0.00             0.00    0.16
     1  CORORT  ................      0.00    0.13             0.00    0.00             0.00    0.10
     1  SYMORB  ................      0.00    0.44             0.00    0.00             0.00    0.34
     1  FITINT  ................      0.00    3.12             0.00    0.00             0.00    2.43
     1  CLSMAT  ................      0.00    0.17             0.00    0.00             0.00    0.13
     1  ORTHON  ................      0.00    0.73             0.00    0.00             0.00    0.56
     1  GENPT   ................      0.00    3.78             0.00    0.00             0.00    2.94
     1  PTBAS   ................      0.00    1.19             0.00    0.57             0.00    1.05
     8  FOCKY   ................      0.01   49.61             0.00   23.62             0.01   43.67
     8  FOCKTR  ................      0.00    1.45             0.00    0.33             0.00    1.20
     8  FOCKNM  ................      0.00    0.22             0.00    0.04             0.00    0.18
     8  SDIIS   ................      0.00    2.26             0.00    0.96             0.00    2.09
     8  EMERGE  ................      0.00   10.18             0.00    7.73             0.00    9.59
     1  COREPS  ................      0.00    0.00             0.00    6.13             0.00    1.33
     1  POPAN   ................      0.00    0.31             0.00    3.08             0.00    0.91
     1  DEBYE   ................      0.00    0.24             0.00    0.00             0.00    0.18
     1  QMPOT   ................      0.00    1.46             0.00    0.00             0.00    1.13
     1  EXIT PROCEDURE .........      0.01    9.48             0.00    0.00             0.01    7.36


 Currently Open Files (EXIT00)
 ====================

 Unit    Access Format  Status   Type       Ident (file)
 -------------------------------------------------------
   3      SEQ    FORM   TRANSP  NORMAL      LOGFILE
                                          ( logfile )


 Buffered I/O statistics
 =======================
 Memory available:                     67108864
 Number of records fitting in memory:     16131
 Input :   1.3% of                         3604  *4k bytes
 Output:  10.6% of                         1855  *4k bytes
 Records from serial files evicted:           0
                    others evicted:           0
 Hash table lookups:      14887 with          0 conflicts (  0.00%)

 ***************************************************************************************************
 (LOGFILE)
 <Jan01-2013> <00:00:00>  DIRAC 2013.01  RunTime: Jan01-2013 00:00:00  Nodes: 1  Procs: 1
 <Jan01-2013> <00:00:00>  NORMAL TERMINATION
 <Jan01-2013> <00:00:00>  END
 <Jan01-2013> <00:00:00>  ADF 2013.01  RunTime: Jan01-2013 00:00:00  Nodes: 1  Procs: 1
 <Jan01-2013> <00:00:00>  Hydrogen (QZ, all electron, 5S 2P 2D)
 <Jan01-2013> <00:00:00>  RunType   : CREATE
 <Jan01-2013> <00:00:00>  Net Charge: 0 (Nuclei minus Electrons)
 <Jan01-2013> <00:00:00>  Symmetry  : ATOM
  Coordinates
    Atom         X           Y           Z   (Angstrom)
    1.H         0.000000    0.000000    0.000000
 <Jan01-2013> <00:00:00>  >>>> CORORT
 <Jan01-2013> <00:00:00>  >>>> FITINT
 <Jan01-2013> <00:00:00>  >>>> CLSMAT
 <Jan01-2013> <00:00:00>  >>>> ORTHON
 <Jan01-2013> <00:00:00>  >>>> GENPT
 <Jan01-2013> <00:00:00>  Acc.Num.Int.=  10.000
 <Jan01-2013> <00:00:00>  Block Length=  44
 <Jan01-2013> <00:00:00>  >>>> PTBAS
 <Jan01-2013> <00:00:00>  >>>> CYCLE
 <Jan01-2013> <00:00:00>    1
 <Jan01-2013> <00:00:00>    2  ErrMat   0.03803841  MaxEl  0.03078708
 <Jan01-2013> <00:00:00>    3  ErrMat   0.00916622  MaxEl -0.00901560
 <Jan01-2013> <00:00:00>    4  ErrMat   0.00035667  MaxEl  0.00031421
 <Jan01-2013> <00:00:00>    5  ErrMat   0.00000962  MaxEl -0.00000892
 <Jan01-2013> <00:00:01>    6  ErrMat   0.00000013  MaxEl  0.00000008
 <Jan01-2013> <00:00:01>    7  ErrMat   0.00000000  MaxEl  0.00000000
 <Jan01-2013> <00:00:01>  SCF converged
 <Jan01-2013> <00:00:01>    8  ErrMat   0.00000000  MaxEl  0.00000000
 <Jan01-2013> <00:00:01>   Solutions with partially occupied orbitals may not be
 <Jan01-2013> <00:00:01>   lowest in energy. You might consider lowering the
 <Jan01-2013> <00:00:01>   symmetry in the input and explicitly specifying integer
 <Jan01-2013> <00:00:01>   occupations. In that case always check that you obtain
 <Jan01-2013> <00:00:01>   an aufbau solution.
 <Jan01-2013> <00:00:01>  >>>> POPAN
 <Jan01-2013> <00:00:01>  >>>> DEBYE
 <Jan01-2013> <00:00:01>  NORMAL TERMINATION
 <Jan01-2013> <00:00:01>  END

 *******************************************************************************
 *                                                                             *
 *  -------------------------------------                                      *
 *   Amsterdam Density Functional  (ADF)         2013.01   April 2, 2013       *
 *  -------------------------------------                                      *
 *                                               Build 201304112106            *
 *                                                                             *
 *                                                                             *
 *                            =====================                            *
 *                            |                   |                            *
 *                            |     D I R A C     |                            *
 *                            |                   |                            *
 *                            =====================                            *
 *                                                                             *
 *                                                                             *
 *   Online information and documentation:  http://www.scm.com                 *
 *   E-mail:  support@scm.com   info@scm.com                                   *
 *                                                                             *
 *   Scientific publications using ADF results must be properly referenced     *
 *   See the User Manuals (or the web site) for recommended citations          *
 *   The terms and conditions of the End User License Agreement apply to       *
 *   the use of ADF, http://www.scm.com/Sales/LicAgreement.html                *
 *                                                                             *
 ****************************  x86_64_linux_intel  *****************************
 
 Licensed to: Prof. Cacier Hadad / University of Antioquia / Medellin / COLOMBIA
 SCM User ID: u15319
  
 DIRAC 2013.01  RunTime: Jan01-2013 00:00:01  Nodes: 1  Procs: 1

 Temporary files are created in /home/scratch/adf/kid_0.N3D6je

1
 OXYGEN ATOM all electron RELATIVISTIC, Point Nuc, A and c fr
 N J RN H ZN XION ANUC CLIGHT
 5000    4100.00000000197.36710137  8.00000000  0.00000000   15.994914  0.1370360E+03
  PH   PHI     EPS        DEL        DELRVR
  0.30  0.30     2500.00  0.00001000  0.00001000
 IDIRC  NC1  NDEBU NPRIN  IPUN IRCOR IWCOR
   1   300     0     0     0     0     0
   XALPHA      XLATTER      RNUC
  0.70000000  0.00000000  0.00000000 Point Charge
   XN   XL   XJ      XE          XZ      XDELL
  1.0  0.0  0.5      -5.000       2.000     0.00000
  2.0  0.0  0.5      -1.000       2.000     0.00000
  2.0  1.0  0.5      -1.000       2.000     0.00000
  2.0  1.0  1.5      -1.000       2.000     0.00000
 ICORP=  0  NPCL=  0  DEMP=0.00  PEPS=0.000000
 R(1)=  0.1000000E-08 D=  0.1005080E+01 RNUC=  0.0000000E+00
 converged at cycle   28  DENSITY AVERAGING    0.2400
  MAXIMUM ERROR IN R.V(R) IS   0.81125670E-05
 Q,EY,EV,EZ,ESUM,ETOT,RHO  0.800000E+01 -0.101247E+02 -0.114961E+03 -0.177573E+03 -0.405053E+02 -0.743427E+02  0.414766E-14


 DIRAC CALCULATION
1                    OXYGEN ATOM all electron RELATIVISTIC, Point Nuc, A and c from libtc


 EXCHANGE COEFFICIENT=  0.7000000           TAIL CORRECTION=  0.           NUCLEAR RADIUS=  0.000E+00
0                       ORBITAL    N    L    J     ELECTRONS     EIGENVALUE                DELTA OF EIGENV.

                          1S1/2  1.0  0.0  0.5     2.000       -0.1880014E+02                 0.7264359E-06
                          2S1/2  2.0  0.0  0.5     2.000       -0.8412236E+00                 0.5932752E-05
                          2P1/2  2.0  1.0  0.5     2.000       -0.3063203E+00                 0.5998471E-05
                          2P3/2  2.0  1.0  1.5     2.000       -0.3049609E+00                 0.5986971E-05


                                        NUCLEAR CHARGE=    8.000000
                            INTEGRAL OF CHARGE DENSITY=    8.000000
                           SUM OF THE ORBITAL ENERGIES=    -40.5053
                                          TOTAL ENERGY=    -74.3427
                                        KINETIC ENERGY=     74.4552
                             NUCLEAR ATTRACTION ENERGY=   -177.5730
                             ELECTRON REPULSION ENERGY=     36.3686
                                       EXCHANGE ENERGY=     -7.5935

 *******************************************************************************

                             D I R A C   E X I T
 NORMAL TERMINATION



 =================
 Timing Statistics
 =================
  
 Total Used :                     CPU=        0.10      System=        0.02     Elapsed=        0.12

 Calls  Section                     ( Mean, Percentage )
 ---------------------------------------------------------------------------------------------------
     2  ><      ................      0.00    0.00             0.00    0.03             0.00    0.01
     1  EXIT PROCEDURE .........      0.10  100.00             0.02   99.97             0.12   99.99


 Currently Open Files (EXIT00)
 ====================

 Unit    Access Format  Status   Type       Ident (file)
 -------------------------------------------------------
   3      SEQ    FORM   TRANSP  NORMAL      LOGFILE
                                          ( logfile )


 Buffered I/O statistics
 =======================
 Memory available:                     67108864
 Number of records fitting in memory:     16131
 Input : 100.0% of                            0  *4k bytes
 Output: 100.0% of                            0  *4k bytes
 Records from serial files evicted:           0
                    others evicted:           0
 Hash table lookups:          0 with          0 conflicts (100.00%)
(INPUT FILE)
Create O   file=/home/danian/Documents/programas/adf2013.01/atomicdata/ZORA/QZ4P/O
 XC
 GGA PBE
End
relativistic ZORA
Corepotentials t12.rel
End Input

 *******************************************************************************
 *                                                                             *
 *  -------------------------------------                                      *
 *   Amsterdam Density Functional  (ADF)         2013.01   April 2, 2013       *
 *  -------------------------------------                                      *
 *                                               Build 201304112215            *
 *                                                                             *
 *                                                                             *
 *                              =================                              *
 *                              |               |                              *
 *                              |     A D F     |                              *
 *                              |               |                              *
 *                              =================                              *
 *                                                                             *
 *                                                                             *
 *   Online information and documentation:  http://www.scm.com                 *
 *   E-mail:  support@scm.com   info@scm.com                                   *
 *                                                                             *
 *   Scientific publications using ADF results must be properly referenced     *
 *   See the User Manuals (or the web site) for recommended citations          *
 *   The terms and conditions of the End User License Agreement apply to       *
 *   the use of ADF, http://www.scm.com/Sales/LicAgreement.html                *
 *                                                                             *
 ********************  x86_64_linux_intel / platform_mpi  **********************
 
 Licensed to: Prof. Cacier Hadad / University of Antioquia / Medellin / COLOMBIA
 SCM User ID: u15319
  
 ADF 2013.01  RunTime: Jan01-2013 00:00:01  Nodes: 1  Procs: 1

 Temporary files are created in /home/scratch/adf/kid_0.AW9L9m

 Oxygen (QZ, all electron, 8S 4P 2D 2F)



 ===========================
 A T T A C H E D   F I L E S
 ===========================
  
 CREATE - Data File:    /home/danian/Documents/programas/adf2013.01/atomicdata/ZORA/QZ4P/O
                        Oxygen (QZ, all electron, 8S 4P 2D 2F)
 Core Potentials:
         file : t12.rel



 ===============================
 M O D E L   P A R A M E T E R S
 ===============================
  
 DENSITY FUNCTIONAL POTENTIAL (scf)
    LDA:                               PW92                                    == Not Default ==
    Gradient Corrections:              PBEc PBEx                               == Not Default ==

 SPIN  (restricted / unrestr.)
    Molecule:                          Restricted                               

 OTHER ASPECTS
    Relativistic Corrections:          scalar (ZORA,SAPA)                      == Not Default ==

    Nuclear Charge Density Model:      Point Charge Nuclei                                                                                                                                                                                     
    Core Treatment:                    Frozen Orbital(s)                        

    Hyperfine or Zeeman Interaction:   ---                                      



 =====================================
 S Y M M E T R Y ,   E L E C T R O N S
 =====================================
  
 Symmetry: ATOM

 Irreducible Representations, including subspecies
 -------------------------------------------------
 S
 P:x  P:y  P:z
 D:z2  D:x2-y2  D:xy  D:xz  D:yz
 F:z3  F:z  F:xyz  F:z2x  F:z2y  F:x  F:y


 Configuration of Valence Electrons
 ==================================

          Occupation Numbers
          -------------------------------------------------
 S        2*2
 P        4
 D        0
 F        0
          -------------------------------------------------

 Total:   8

 Net Charge: 0 (Nuclei minus Electrons)

 Preset values for MO occupations will be applied through SCF cycle no. 1000000
 Thereafter, the program will assign electrons to MOs that are spatially
 similar to the occupied MOs in a "reference" cycle ("KeepOrbitals").
 The reference cycle is always the PREVIOUS cycle: it will evolve with
 the SCF procedure.



 ================================
 (Slater-type)  F U N C T I O N S  ***  (Basis and Fit)  ***
 ================================
  

 Atom Type    1  (O)
 ==============

 Valence Basis Sets:  16
 -----------------------
   1 S   14.800000
   1 S    8.750000
   1 S    6.650000
   2 S    7.100000
   2 S    3.200000
   2 S    2.050000
   2 S    1.500000
   2 S    0.750000
   2 P    5.700000
   2 P    3.050000
   2 P    1.650000
   2 P    1.000000
   3 D    2.500000
   3 D    1.500000
   4 F    4.000000
   4 F    2.000000

 Charge Fitting Sets (for the computation of the Coulomb Potential):  37
 -----------------------------------------------------------------------
   1 S   29.600000
   1 S   22.760000
   1 S   17.500000
   1 S   11.580000
   2 S   14.160000
   2 S   10.290000
   2 S    7.480000
   2 S    5.430000
   3 S    5.780000
   3 S    4.410000
   3 S    3.370000
   3 S    2.570000
   3 S    1.960000
   3 S    1.500000
   2 P   14.450000
   2 P    9.770000
   2 P    6.610000
   3 P    6.560000
   3 P    4.710000
   3 P    3.390000
   3 P    2.430000
   3 P    1.750000
   3 D   11.400000
   3 D    7.640000
   3 D    5.120000
   4 D    4.550000
   4 D    3.200000
   4 D    2.250000
   4 F   12.750000
   4 F    8.120000
   4 F    5.170000
   5 F    4.130000
   5 F    2.750000
   5 G    9.700000
   5 G    6.560000
   5 G    4.440000
   5 G    3.000000


 BAS: List of all Elementary Cartesian Basis Functions
 =====================================================

 The numbering in the list below (to the right of the function characteristics) is referred
 to in print-outs of MO eigenvectors and Mulliken populations in the BAS representation
 (as contrasted to the SFO representation).

 Notes:
 1. The functions are characterized by a polynomial prefactor (powers of x,y,z and r) and
    an exponential decay factor alpha.
 2. Since the basis sets are specific for an atom TYPE, the individual functions occur on
    all atoms of that type.
 3. The word 'Core' in the left margin signals that it is a Core Function (CF) : not a
    degree of freedom in the valence set, but only used to ensure orthogonalization of
    the other valence basis functions on the frozen Core Orbitals.


 (power of) X  Y  Z  R     Alpha  on Atom
            ==========     =====     ==========

 O                                    1
                                  ---------------------------------------------------------------------------
            0  0  0  0    14.800      1
            0  0  0  0     8.750      2
            0  0  0  0     6.650      3
            0  0  0  1     7.100      4
            0  0  0  1     3.200      5
            0  0  0  1     2.050      6
            0  0  0  1     1.500      7
            0  0  0  1     0.750      8
            1  0  0  0     5.700      9
            0  1  0  0     5.700     10
            0  0  1  0     5.700     11
            1  0  0  0     3.050     12
            0  1  0  0     3.050     13
            0  0  1  0     3.050     14
            1  0  0  0     1.650     15
            0  1  0  0     1.650     16
            0  0  1  0     1.650     17
            1  0  0  0     1.000     18
            0  1  0  0     1.000     19
            0  0  1  0     1.000     20
            2  0  0  0     2.500     21
            1  1  0  0     2.500     22
            1  0  1  0     2.500     23
            0  2  0  0     2.500     24
            0  1  1  0     2.500     25
            0  0  2  0     2.500     26
            2  0  0  0     1.500     27
            1  1  0  0     1.500     28
            1  0  1  0     1.500     29
            0  2  0  0     1.500     30
            0  1  1  0     1.500     31
            0  0  2  0     1.500     32
            3  0  0  0     4.000     33
            2  1  0  0     4.000     34
            2  0  1  0     4.000     35
            1  2  0  0     4.000     36
            1  1  1  0     4.000     37
            1  0  2  0     4.000     38
            0  3  0  0     4.000     39
            0  2  1  0     4.000     40
            0  1  2  0     4.000     41
            0  0  3  0     4.000     42
            3  0  0  0     2.000     43
            2  1  0  0     2.000     44
            2  0  1  0     2.000     45
            1  2  0  0     2.000     46
            1  1  1  0     2.000     47
            1  0  2  0     2.000     48
            0  3  0  0     2.000     49
            0  2  1  0     2.000     50
            0  1  2  0     2.000     51
            0  0  3  0     2.000     52

 Total number of charge fitting functions (nprimf)       184
 Total number of Cartesian basis functions (naos)         52
 Total number of Cartesian core functions  (ncos)          0



 BAS: List of all Elementary Cartesian Basis Functions
 =====================================================

 The numbering in the list below (to the right of the function characteristics) is referred
 to in print-outs of MO eigenvectors and Mulliken populations in the BAS representation
 (as contrasted to the SFO representation).

 Notes:
 1. The functions are characterized by a polynomial prefactor (powers of x,y,z and r) and
    an exponential decay factor alpha.
 2. Since the basis sets are specific for an atom TYPE, the individual functions occur on
    all atoms of that type.
 3. The word 'Core' in the left margin signals that it is a Core Function (CF) : not a
    degree of freedom in the valence set, but only used to ensure orthogonalization of
    the other valence basis functions on the frozen Core Orbitals.


 (power of) X  Y  Z  R     Alpha  on Atom
            ==========     =====     ==========

 O                                    1
                                  ---------------------------------------------------------------------------
            0  0  0  0    14.800      1
            0  0  0  0     8.750      2
            0  0  0  0     6.650      3
            0  0  0  1     7.100      4
            0  0  0  1     3.200      5
            0  0  0  1     2.050      6
            0  0  0  1     1.500      7
            0  0  0  1     0.750      8
            1  0  0  0     5.700      9
            0  1  0  0     5.700     10
            0  0  1  0     5.700     11
            1  0  0  0     3.050     12
            0  1  0  0     3.050     13
            0  0  1  0     3.050     14
            1  0  0  0     1.650     15
            0  1  0  0     1.650     16
            0  0  1  0     1.650     17
            1  0  0  0     1.000     18
            0  1  0  0     1.000     19
            0  0  1  0     1.000     20
            2  0  0  0     2.500     21
            1  1  0  0     2.500     22
            1  0  1  0     2.500     23
            0  2  0  0     2.500     24
            0  1  1  0     2.500     25
            0  0  2  0     2.500     26
            2  0  0  0     1.500     27
            1  1  0  0     1.500     28
            1  0  1  0     1.500     29
            0  2  0  0     1.500     30
            0  1  1  0     1.500     31
            0  0  2  0     1.500     32
            3  0  0  0     4.000     33
            2  1  0  0     4.000     34
            2  0  1  0     4.000     35
            1  2  0  0     4.000     36
            1  1  1  0     4.000     37
            1  0  2  0     4.000     38
            0  3  0  0     4.000     39
            0  2  1  0     4.000     40
            0  1  2  0     4.000     41
            0  0  3  0     4.000     42
            3  0  0  0     2.000     43
            2  1  0  0     2.000     44
            2  0  1  0     2.000     45
            1  2  0  0     2.000     46
            1  1  1  0     2.000     47
            1  0  2  0     2.000     48
            0  3  0  0     2.000     49
            0  2  1  0     2.000     50
            0  1  2  0     2.000     51
            0  0  3  0     2.000     52
1
 ***************************************************************************************************



                                              ***********************
                                              *  T E C H N I C A L  *
                                              ***********************
  



 =============================================================
 P A R A L L E L I Z A T I O N  and  V E C T O R I Z A T I O N
 =============================================================
  
 Nr of parallel processes:                                1
 Maximum vector length in NumInt loops:                 128



 ===============
 I O  vs.  C P U  ***  (store numerical data on disk or recalculate)  ***
 ===============
  
 Basis functions:   recalculate when needed
 Fit functions:     recalculate when needed

 IO buffersize (Mb):                                     64.000000



 =====================
 S C F   U P D A T E S
 =====================
  
 Max. nr. of cycles:                               100
 Convergence criterion:                              0.0000000100
   secondary criterion:                              0.0000000100

 Mix parameter (when DIIS does not apply):           0.2000000000
 Special mix parameter for the first cycle:          1.0000000000


 DIIS (Direct Inversion in Iteration Space)
    Replace damping when SCF Error is below:         0.5000000000
    Apply anyway after SCF cycle:
                                                     5
    (Max.) nr. of expansion vectors:                10

    Upperbound on expansion coefficients:            5.0000000000
    (when exceeded, IterationSpace is re-built)
    2nd Upperbound on coefficients:                 25.0000000000
    (when exceeded, simple damping will be used)
 Automatic ElectronSmearing (in case of problematic SCF convergence) disabled



 =================
 P R E C I S I O N  ***  (General: NumInt, NeglectFunctionTails, ...)  ***
 =================
  

 NumInt:           Target precision:                10.0000000000
 -------           Initial precision:               10.0000000000
                   Min. precision (optimization):   10.0000000000

 Neglect Functions:          Basis functions:        0.1000000000E-11
 ------------------          Fit functions:          0.1000000000E-11



 ===========================
 L I N E A R   S C A L I N G
 ===========================
  

 Cut-off radii density fit:                        0.1000000000E-13
 Overlap cut-off criterion AO matrix elements:     0.1000000000E-11
 Cut-offs for Coulomb potential and fitted density:0.1000000000E-13
 Cut-off criterion for Coulomb multipole terms:    0.1000000000E-13
 Progressive Convergence parameter:                 0.000000000    
1
 ***************************************************************************************************



                                            ***************************
                                            *  C O M P U T A T I O N  *
                                            ***************************
  

 Number of elements of the density matrix on this node (used, total):      1378      1378



 ====================================================
 Numerical Integration : Voronoi Polyhedra (Te Velde)
 ====================================================
  
 General Accuracy Parameter :                         10.00

 Symmetry used in the points section:  ATOM  


 Summary of the Symmetry Unique Points:
 --------------------------------------
    Nr. of used Symmetry Operators                     1

    Points in the Atomic Spheres                      61
    Points in the Atomic Polyhedra                     0
    Points in the Outer Region                         0
    ----------------------------------------------------
    Total                                             61

    Sum of Weights                                 58501.056183

 Total nr. of points:         61
 Nr. of blocks:                1
 Block length:                61
 Nr. of dummy points:          0


 Test of Precision of the Numerical Integration Grid
 ===================================================

 Integral of the Total Core Density:                   0.00000000000000



 =====
 S C F
 =====
  

 CYCLE    1
 orbitals (Q,E):
 ---------------
 S :1...8            ( 2.00   -32.0159)  ( 2.00    -8.0044)  ( 0.00    -3.5574)  ( 0.00    -1.9901)
                     ( 0.00    -1.2515)  ( 0.00     4.1058)  ( 0.00    41.2206)  ( 0.00   308.5800)
 P :1...4            ( 4.00    -7.9758)  ( 0.00    -3.5116)  ( 0.00    -1.8856)  ( 0.00     3.1956)
 D :1...2            ( 0.00    -3.5495)  ( 0.00    -1.9917)
 F :1...2            ( 0.00    -1.9999)  ( 0.00     1.0590)

 CYCLE    2
 d-Pmat  mean:  0.11E+01
 imax=      3: -0.25E+02
 orbitals (Q,E):
 ---------------
 S :1...3            ( 2.00   -14.5566)  ( 2.00    -0.0356)  ( 0.00     0.1667)
 P :1...2            ( 4.00     0.2048)  ( 0.00     0.7903)
 D :1...1            ( 0.00     0.7381)
 F :1...1            ( 0.00     1.6042)

 CYCLE    3
 d-Pmat  mean:  0.30E+00
 imax=     20: -0.24E+01
 orbitals (Q,E):
 ---------------
 S :1...3            ( 2.00   -16.2388)  ( 2.00    -0.4301)  ( 0.00     0.0620)
 P :1...2            ( 4.00     0.0108)  ( 0.00     0.4058)
 D :1...1            ( 0.00     0.5775)
 F :1...1            ( 0.00     1.4155)

 CYCLE    4
 d-Pmat  mean:  0.10E+00
 imax=     20: -0.11E+01
 orbitals (Q,E):
 ---------------
 S :1...3            ( 2.00   -17.2725)  ( 2.00    -0.6986)  ( 0.00     0.0275)
 P :1...2            ( 4.00    -0.1717)  ( 0.00     0.2612)
 D :1...1            ( 0.00     0.5085)
 F :1...1            ( 0.00     1.3362)

 CYCLE    5
 d-Pmat  mean:  0.56E-01
 imax=      3:  0.70E+00
 orbitals (Q,E):
 ---------------
 S :1...3            ( 2.00   -18.8741)  ( 2.00    -0.8425)  ( 0.00     0.0251)
 P :1...2            ( 4.00    -0.2957)  ( 0.00     0.2201)
 D :1...1            ( 0.00     0.5505)
 F :1...1            ( 0.00     1.3859)

 CYCLE    6
 d-Pmat  mean:  0.57E-02
 imax=      2:  0.75E-01
 orbitals (Q,E):
 ---------------
 S :1...3            ( 2.00   -18.9263)  ( 2.00    -0.8875)  ( 0.00     0.0144)
 P :1...2            ( 4.00    -0.3386)  ( 0.00     0.1983)
 D :1...1            ( 0.00     0.5241)
 F :1...1            ( 0.00     1.3583)

 CYCLE    7
 d-Pmat  mean:  0.80E-03
 imax=      6: -0.45E-02
 orbitals (Q,E):
 ---------------
 S :1...3            ( 2.00   -18.9106)  ( 2.00    -0.8796)  ( 0.00     0.0160)
 P :1...2            ( 4.00    -0.3310)  ( 0.00     0.2007)
 D :1...1            ( 0.00     0.5265)
 F :1...1            ( 0.00     1.3609)

 CYCLE    8
 d-Pmat  mean:  0.91E-04
 imax=      6:  0.77E-03
 orbitals (Q,E):
 ---------------
 S :1...3            ( 2.00   -18.9122)  ( 2.00    -0.8804)  ( 0.00     0.0159)
 P :1...2            ( 4.00    -0.3317)  ( 0.00     0.2005)
 D :1...1            ( 0.00     0.5262)
 F :1...1            ( 0.00     1.3606)

 CYCLE    9
 d-Pmat  mean:  0.72E-06
 imax=      2: -0.12E-04
 orbitals (Q,E):
 ---------------
 S :1...3            ( 2.00   -18.9122)  ( 2.00    -0.8804)  ( 0.00     0.0159)
 P :1...2            ( 4.00    -0.3317)  ( 0.00     0.2005)
 D :1...1            ( 0.00     0.5262)
 F :1...1            ( 0.00     1.3606)

 CYCLE   10
 d-Pmat  mean:  0.12E-07
 imax=      6: -0.16E-06
 orbitals (Q,E):
 ---------------
 S :1...3            ( 2.00   -18.9122)  ( 2.00    -0.8804)  ( 0.00     0.0159)
 P :1...2            ( 4.00    -0.3317)  ( 0.00     0.2005)
 D :1...1            ( 0.00     0.5262)
 F :1...1            ( 0.00     1.3606)

 CYCLE   11
 d-Pmat  mean:  0.14E-09
 imax=      6: -0.15E-08
 orbitals (Q,E):
 ---------------
 S :1...3            ( 2.00   -18.9122)  ( 2.00    -0.8804)  ( 0.00     0.0159)
 P :1...2            ( 4.00    -0.3317)  ( 0.00     0.2005)
 D :1...1            ( 0.00     0.5262)
 F :1...1            ( 0.00     1.3606)

 SCF CONVERGED

 CYCLE   12
1
 ***************************************************************************************************



                                                *******************
                                                *  R E S U L T S  *
                                                *******************
  
 *** Setting up for NEW gradients in focky
 *** Using FIT density in focky

 Scaled ZORA Orbital Energies, per Irrep and Spin:
 =================================================
                        Occup              E (au)              E (eV)       Diff (eV) with prev. cycle
                        -----      --------------------        ------       --------------------------
 S
               1        2.000     -0.18912163588779E+02      -514.626               4.75E-09
               2        2.000     -0.88042536023933E+00       -23.958               4.99E-09
               3        0.000      0.15917244304958E-01         0.433
               4        0.000      0.47157190212927E+00        12.832
               5        0.000      0.25092163553859E+01        68.279
               6        0.000      0.11901959077277E+02       323.869
               7        0.000      0.52347890775244E+02      1424.459
               8        0.000      0.32159312652146E+03      8750.994
 P
               1        4.000     -0.33172720131057E+00        -9.027               4.92E-09
               2        0.000      0.20052917663188E+00         5.457
               3        0.000      0.16594440945136E+01        45.156
               4        0.000      0.12142335979722E+02       330.410
 D
               1        0.000      0.52623159774356E+00        14.319
               2        0.000      0.24055384910366E+01        65.458
 F
               1        0.000      0.13606224428469E+01        37.024
               2        0.000      0.70188296926901E+01       190.992


 Partially Occupied:
               1 P                -0.33172720131057E+00
  
 HOMO :        2 S                -0.88042536023933E+00
 LUMO :        3 S                 0.15917244304958E-01
  


 Orbital Energies, all Irreps
 ========================================

 Irrep        no.  (spin)   Occup              E (au)                E (eV)
 ---------------------------------------------------------------------------
 S             1             2.00       -0.18912163588779E+02      -514.6262
 S             2             2.00       -0.88042536023933E+00       -23.9576
 P             1             4.00       -0.33172720131057E+00        -9.0268
 S             3             0.00        0.15917244304958E-01         0.4331
 P             2             0.00        0.20052917663188E+00         5.4567
 S             4             0.00        0.47157190212927E+00        12.8321
 D             1             0.00        0.52623159774356E+00        14.3195
 F             1             0.00        0.13606224428469E+01        37.0244
 P             3             0.00        0.16594440945136E+01        45.1558
 D             2             0.00        0.24055384910366E+01        65.4580
 S             5             0.00        0.25092163553859E+01        68.2793
 F             2             0.00        0.70188296926901E+01       190.9921
 S             6             0.00        0.11901959077277E+02       323.8688
 P             4             0.00        0.12142335979722E+02       330.4098
 S             7             0.00        0.52347890775244E+02      1424.4586
 S             8             0.00        0.32159312652146E+03      8750.9942


 All Electron Calculation, thus no Orbital Energies of the Core Orbitals are calculated



 =======================================
 M U L L I K E N   P O P U L A T I O N S
 =======================================
  
 The survey below gives for each atom:
 a) the total charge (Z minus electrons)
 b) the net spin polarization (nr of electrons spin-A minus spin-B)
 c) for each spin the atomic electron valence density (integrated) per L-value.

 Atom              Charge    Spin density          S         P         D         F
 ----              ------    ------------       ------    ------    ------    ------
 1 O               0.0000                       4.0000    4.0000    0.0000    0.0000

 Populations of individual BAS functions
 ----------------------------------------
 1 O            0.0407  0.7707  1.2791 -0.1485  0.7639  1.0393  0.2537  0.0009  0.0450  0.0450
                0.0450  0.4807  0.4807  0.4807  0.6422  0.6422  0.6422  0.1654  0.1654  0.1654
                0.0000  0.0000  0.0000  0.0000  0.0000  0.0000  0.0000  0.0000  0.0000  0.0000
                0.0000  0.0000  0.0000  0.0000  0.0000  0.0000  0.0000  0.0000  0.0000  0.0000
                0.0000  0.0000  0.0000  0.0000  0.0000  0.0000  0.0000  0.0000  0.0000  0.0000
                0.0000  0.0000

 Gross Charges per Atom (Z minus electrons)
 ==========================================
             0.0000
 Net Total:  0.00000000


 Atom-Atom Population Matrix (off-diagonal elements not doubled)
 ===============================================================

     1 :     8.0000



 =============
 Dipole Moment  ***  (Debye)  ***
 =============
  
 Vector   :         0.00000000      0.00000000      0.00000000
 Magnitude:         0.00000000

 This molecular dipole moment is calculated with analytic integration



 =========================================
 Quadrupole Moment (Buckingham convention)  ***  (a.u.)  ***
 =========================================
  
      quad-xx        quad-xy        quad-xz        quad-yy        quad-yz        quad-zz
      0.00000000     0.00000000     0.00000000     0.00000000     0.00000000     0.00000000

 This molecular quadrupole moment is calculated with analytic integration



 ===============================================================================
 Electrostatic potential at the Nuclei due to valence electrons and other nuclei
 ===============================================================================
  
         Atom                  Potential
         ----                  ---------
     1)   O                  22.26490088
 
 
 ========================
 No memory problems found
 ========================
 
 Maximum number of active allocate calls:         476
 
 *******************************************************************************

                             A D F   E X I T
 NORMAL TERMINATION



 =================
 Timing Statistics
 =================
  
 Total Used :                     CPU=        0.19      System=        0.04     Elapsed=        0.22

 Calls  Section                     ( Mean, Percentage )
 ---------------------------------------------------------------------------------------------------
     3  ><      ................      0.00    0.29             0.00    0.05             0.00    0.25
     1  INIT    ................      0.00    2.10             0.00    9.20             0.01    3.29
     1  GEOMET  ................      0.01    5.99             0.02   48.27             0.03   13.16
     1  INPUTA  ................      0.00    0.71             0.00    0.00             0.00    0.59
     1  MAINSY  ................      0.01    3.40             0.00    0.16             0.01    2.85
     1  SYMFIT  ................      0.00    0.19             0.00    0.00             0.00    0.16
     1  CORORT  ................      0.00    0.11             0.00    0.00             0.00    0.09
     1  SYMORB  ................      0.00    0.48             0.00    0.00             0.00    0.40
     1  FITINT  ................      0.00    2.59             0.00    0.00             0.00    2.15
     1  CLSMAT  ................      0.00    0.15             0.00    0.00             0.00    0.13
     1  ORTHON  ................      0.00    0.73             0.00    0.00             0.00    0.60
     1  GENPT   ................      0.00    2.14             0.00    8.02             0.01    3.12
     1  PTBAS   ................      0.00    0.71             0.00    2.41             0.00    0.99
    12  FOCKY   ................      0.01   46.62             0.00   26.38             0.01   43.24
    12  FOCKTR  ................      0.00    1.53             0.00    0.00             0.00    1.27
    12  FOCKNM  ................      0.00    0.16             0.00    0.00             0.00    0.13
    12  SDIIS   ................      0.00    1.95             0.00    0.00             0.00    1.62
    12  EMERGE  ................      0.00   16.56             0.00    5.40             0.00   14.66
     1  COREPS  ................      0.00    1.89             0.00    0.08             0.00    1.58
     1  POPAN   ................      0.00    1.18             0.00    0.00             0.00    0.98
     1  DEBYE   ................      0.00    0.28             0.00    0.00             0.00    0.23
     1  QMPOT   ................      0.01    2.88             0.00    0.02             0.01    2.39
     1  EXIT PROCEDURE .........      0.01    7.35             0.00    0.01             0.01    6.10


 Currently Open Files (EXIT00)
 ====================

 Unit    Access Format  Status   Type       Ident (file)
 -------------------------------------------------------
   3      SEQ    FORM   TRANSP  NORMAL      LOGFILE
                                          ( logfile )


 Buffered I/O statistics
 =======================
 Memory available:                     67108864
 Number of records fitting in memory:     16131
 Input :   0.9% of                         6430  *4k bytes
 Output:   8.3% of                         2767  *4k bytes
 Records from serial files evicted:           0
                    others evicted:           0
 Hash table lookups:      25047 with          0 conflicts (  0.00%)

 ***************************************************************************************************
 (LOGFILE)
 <Jan01-2013> <00:00:00>  DIRAC 2013.01  RunTime: Jan01-2013 00:00:00  Nodes: 1  Procs: 1
 <Jan01-2013> <00:00:00>  NORMAL TERMINATION
 <Jan01-2013> <00:00:00>  END
 <Jan01-2013> <00:00:00>  ADF 2013.01  RunTime: Jan01-2013 00:00:00  Nodes: 1  Procs: 1
 <Jan01-2013> <00:00:00>  Hydrogen (QZ, all electron, 5S 2P 2D)
 <Jan01-2013> <00:00:00>  RunType   : CREATE
 <Jan01-2013> <00:00:00>  Net Charge: 0 (Nuclei minus Electrons)
 <Jan01-2013> <00:00:00>  Symmetry  : ATOM
  Coordinates
    Atom         X           Y           Z   (Angstrom)
    1.H         0.000000    0.000000    0.000000
 <Jan01-2013> <00:00:00>  >>>> CORORT
 <Jan01-2013> <00:00:00>  >>>> FITINT
 <Jan01-2013> <00:00:00>  >>>> CLSMAT
 <Jan01-2013> <00:00:00>  >>>> ORTHON
 <Jan01-2013> <00:00:00>  >>>> GENPT
 <Jan01-2013> <00:00:00>  Acc.Num.Int.=  10.000
 <Jan01-2013> <00:00:00>  Block Length=  44
 <Jan01-2013> <00:00:00>  >>>> PTBAS
 <Jan01-2013> <00:00:00>  >>>> CYCLE
 <Jan01-2013> <00:00:00>    1
 <Jan01-2013> <00:00:00>    2  ErrMat   0.03803841  MaxEl  0.03078708
 <Jan01-2013> <00:00:00>    3  ErrMat   0.00916622  MaxEl -0.00901560
 <Jan01-2013> <00:00:00>    4  ErrMat   0.00035667  MaxEl  0.00031421
 <Jan01-2013> <00:00:00>    5  ErrMat   0.00000962  MaxEl -0.00000892
 <Jan01-2013> <00:00:01>    6  ErrMat   0.00000013  MaxEl  0.00000008
 <Jan01-2013> <00:00:01>    7  ErrMat   0.00000000  MaxEl  0.00000000
 <Jan01-2013> <00:00:01>  SCF converged
 <Jan01-2013> <00:00:01>    8  ErrMat   0.00000000  MaxEl  0.00000000
 <Jan01-2013> <00:00:01>   Solutions with partially occupied orbitals may not be
 <Jan01-2013> <00:00:01>   lowest in energy. You might consider lowering the
 <Jan01-2013> <00:00:01>   symmetry in the input and explicitly specifying integer
 <Jan01-2013> <00:00:01>   occupations. In that case always check that you obtain
 <Jan01-2013> <00:00:01>   an aufbau solution.
 <Jan01-2013> <00:00:01>  >>>> POPAN
 <Jan01-2013> <00:00:01>  >>>> DEBYE
 <Jan01-2013> <00:00:01>  NORMAL TERMINATION
 <Jan01-2013> <00:00:01>  END
 <Jan01-2013> <00:00:01>  DIRAC 2013.01  RunTime: Jan01-2013 00:00:01  Nodes: 1  Procs: 1
 <Jan01-2013> <00:00:01>  NORMAL TERMINATION
 <Jan01-2013> <00:00:01>  END
 <Jan01-2013> <00:00:01>  ADF 2013.01  RunTime: Jan01-2013 00:00:01  Nodes: 1  Procs: 1
 <Jan01-2013> <00:00:01>  Oxygen (QZ, all electron, 8S 4P 2D 2F)
 <Jan01-2013> <00:00:01>  RunType   : CREATE
 <Jan01-2013> <00:00:01>  Net Charge: 0 (Nuclei minus Electrons)
 <Jan01-2013> <00:00:01>  Symmetry  : ATOM
  Coordinates
    Atom         X           Y           Z   (Angstrom)
    1.O         0.000000    0.000000    0.000000
 <Jan01-2013> <00:00:01>  >>>> CORORT
 <Jan01-2013> <00:00:01>  >>>> FITINT
 <Jan01-2013> <00:00:01>  >>>> CLSMAT
 <Jan01-2013> <00:00:01>  >>>> ORTHON
 <Jan01-2013> <00:00:01>  >>>> GENPT
 <Jan01-2013> <00:00:01>  Acc.Num.Int.=  10.000
 <Jan01-2013> <00:00:01>  Block Length=  61
 <Jan01-2013> <00:00:01>  >>>> PTBAS
 <Jan01-2013> <00:00:01>  >>>> CYCLE
 <Jan01-2013> <00:00:01>    1
 <Jan01-2013> <00:00:01>    2  ErrMat   9.74921119  MaxEl  4.13901188
 <Jan01-2013> <00:00:01>    3  ErrMat   3.70162577  MaxEl -2.91656473
 <Jan01-2013> <00:00:01>    4  ErrMat   2.94969141  MaxEl -1.91814780
 <Jan01-2013> <00:00:01>    5  ErrMat   1.88970506  MaxEl -1.07111526
 <Jan01-2013> <00:00:01>    6  ErrMat   0.04645269  MaxEl -0.01876708
 <Jan01-2013> <00:00:01>    7  ErrMat   0.02377734  MaxEl  0.01063637
 <Jan01-2013> <00:00:01>    8  ErrMat   0.00251040  MaxEl -0.00114123
 <Jan01-2013> <00:00:01>    9  ErrMat   0.00000968  MaxEl -0.00000432
 <Jan01-2013> <00:00:01>   10  ErrMat   0.00000018  MaxEl  0.00000007
 <Jan01-2013> <00:00:01>   11  ErrMat   0.00000000  MaxEl  0.00000000
 <Jan01-2013> <00:00:01>  SCF converged
 <Jan01-2013> <00:00:01>   12  ErrMat   0.00000000  MaxEl  0.00000000
 <Jan01-2013> <00:00:01>   Solutions with partially occupied orbitals may not be
 <Jan01-2013> <00:00:01>   lowest in energy. You might consider lowering the
 <Jan01-2013> <00:00:01>   symmetry in the input and explicitly specifying integer
 <Jan01-2013> <00:00:01>   occupations. In that case always check that you obtain
 <Jan01-2013> <00:00:01>   an aufbau solution.
 <Jan01-2013> <00:00:01>  >>>> POPAN
 <Jan01-2013> <00:00:01>  >>>> DEBYE
 <Jan01-2013> <00:00:01>  NORMAL TERMINATION
 <Jan01-2013> <00:00:01>  END
Platform-MPI licensed for SCM.


 Parallel Execution: Process Information
 ==============================================================================
 Rank   Node Name                              NodeID   MyNodeRank  NodeMaster
    0   parca                                     0          0          0
    1   parca                                     0          1         -1
    2   parca                                     0          2         -1
    3   parca                                     0          3         -1
 ==============================================================================


(INPUT FILE)

 TITLE Annealing ASCEC

 Charge {1,0}
 ATOMS
   H        -3.092845   -0.925663    0.858036
   O        -4.082973   -0.689737    1.005578
   H        -4.802080   -1.007120    0.221265
   H        -4.364781   -0.936324    1.904891
 END

 symmetry auto

 RELATIVISTIC Spin-Orbit ZORA

 XC
 GGA PBE
 END

 Geometry
  Frequencies
 end

 SCF
 CONVERGE 1e-6 1e-6
 ITERATION 200
 END

Fragments
H t21.H
O t21.O
End
end input

 *******************************************************************************
 *                                                                             *
 *  -------------------------------------                                      *
 *   Amsterdam Density Functional  (ADF)         2013.01   April 2, 2013       *
 *  -------------------------------------                                      *
 *                                               Build 201304112215            *
 *                                                                             *
 *                                                                             *
 *                              =================                              *
 *                              |               |                              *
 *                              |     A D F     |                              *
 *                              |               |                              *
 *                              =================                              *
 *                                                                             *
 *                                                                             *
 *   Online information and documentation:  http://www.scm.com                 *
 *   E-mail:  support@scm.com   info@scm.com                                   *
 *                                                                             *
 *   Scientific publications using ADF results must be properly referenced     *
 *   See the User Manuals (or the web site) for recommended citations          *
 *   The terms and conditions of the End User License Agreement apply to       *
 *   the use of ADF, http://www.scm.com/Sales/LicAgreement.html                *
 *                                                                             *
 ********************  x86_64_linux_intel / platform_mpi  **********************
 
 Licensed to: Prof. Cacier Hadad / University of Antioquia / Medellin / COLOMBIA
 SCM User ID: u15319
  
 ADF 2013.01  RunTime: Jan01-2013 00:00:02  Nodes: 1  Procs: 4

 Temporary files are created in /home/scratch/adf/kid_0.lbC0Cg


Communication costs MPI_COMM_WORLD:      0.615 usec per message,   0.0043 usec per 8-byte item
Communication costs for intra-node:      0.601 usec per message,   0.0044 usec per 8-byte item

 Annealing ASCEC



 ===========================
 A T T A C H E D   F I L E S
 ===========================
  



 ===============================
 M O D E L   P A R A M E T E R S
 ===============================
  
 DENSITY FUNCTIONAL POTENTIAL (scf)
    LDA:                               PW92                                    == Not Default ==
    Gradient Corrections:              PBEc PBEx                               == Not Default ==

 SPIN  (restricted / unrestr.)
    Molecule:                          Restricted                               
    Fragments:                         Restricted                               

 OTHER ASPECTS
    Relativistic Corrections:          Spin-Orbit (ZORA,SAPA)                  == Not Default ==

    Nuclear Charge Density Model:      Point Charge Nuclei                                                                                                                                                                                     
    Core Treatment:                    Frozen Orbital(s)                        

    Hyperfine or Zeeman Interaction:   ---                                      


 Fragment File(s)
 ----------------
 H:
         file : t21.H
         jobid: ADF 2013.01  RunTime: Jan01-2013 00:00:00  Nodes: 1  Procs: 1
         title: Hydrogen (QZ, all electron, 5S 2P 2D)
 O:
         file : t21.O
         jobid: ADF 2013.01  RunTime: Jan01-2013 00:00:01  Nodes: 1  Procs: 1
         title: Oxygen (QZ, all electron, 8S 4P 2D 2F)



                                        ***********************************
                                        *  R U N   T Y P E : FREQUENCIES  *
                                        ***********************************
  



 ===============
 G E O M E T R Y  ***  3D  Molecule  ***
 ===============
  

 ATOMS
 =====                            X Y Z                    CHARGE
                                (Angstrom)             Nucl     +Core       At.Mass
                       --------------------------    ----------------       -------
    1  H              -3.0928   -0.9257    0.8580      1.00      1.00        1.0078
    2  O              -4.0830   -0.6897    1.0056      8.00      8.00       15.9949
    3  H              -4.8021   -1.0071    0.2213      1.00      1.00        1.0078
    4  H              -4.3648   -0.9363    1.9049      1.00      1.00        1.0078


 FRAGMENTS
 =========                                     Atoms in this Fragment     Cart. coord.s (Angstrom)
                                               -------------------------------------------------------
    1  H                                                 1  H           -3.0928   -0.9257    0.8580
    2  H                                                 3  H           -4.8021   -1.0071    0.2213
    3  H                                                 4  H           -4.3648   -0.9363    1.9049
    4  O                                                 2  O           -4.0830   -0.6897    1.0056


 Interatomic Distance Matrix (Angstrom)
 --------------------------------------

   1)     0.000
   2)     1.028   0.000
   3)     1.826   1.110   0.000
   4)     1.647   0.974   1.741   0.000

 Min. Distance =    0.9742
 Max. Distance =    1.8258



 =====================================
 S Y M M E T R Y ,   E L E C T R O N S
 =====================================
  
 Symmetry: NOSYM

 Double Group Irreducible Representations (spinor symmetry)
 -----------------------------------------------------------
 A1/2

 *** In a FREQUENCIES run the point group symmetry is used only in the construction of the Force Matrix.
     Due to possibly symmetry-breaking displacements, the SCF calculations run in 'NOSYM', with only one
     irrep and one subspecies: A.
 (The current implementation does not use C(LIN),D(LIN) symmetries efficiently in Frequencies-runs.
 If specified they will internally be reset to NOSYM)


 Configuration of Valence Electrons
 ==================================
 ( determined in the SCF procedure )

 Total:   10

 Net Charge: 1 (Nuclei minus Electrons)

 Aufbau principle for MO occupations will be applied through SCF cycle no.      30
 Thereafter, the program will assign electrons to MOs that are spatially
[...]
 <Jan01-2013> <00:00:38>  >>>> POPAN
 <Jan01-2013> <00:00:38>  >>>> DEBYE
 <Jan01-2013> <00:00:38>  >>>> AMETS
 <Jan01-2013> <00:00:38>  >>>> ENGRAD
  Coordinates in Frequency Displacement 10
    Atom         X           Y           Z   (Angstrom)
    1.H        -3.092845   -0.925663    0.858036
    2.O        -4.082973   -0.679737    1.005578
    3.H        -4.802080   -1.007120    0.221265
    4.H        -4.364781   -0.936324    1.904891
 <Jan01-2013> <00:00:39>  >>>> CORORT
 <Jan01-2013> <00:00:39>  >>>> FITINT
 <Jan01-2013> <00:00:39>  >>>> CLSMAT
 <Jan01-2013> <00:00:39>  >>>> ORTHON
 <Jan01-2013> <00:00:39>  >>>> GENPT
 <Jan01-2013> <00:00:39>  Block Length= 128
 <Jan01-2013> <00:00:39>  >>>> PTBAS
 <Jan01-2013> <00:00:40>  >>>> CYCLE
 <Jan01-2013> <00:00:40>    1
 <Jan01-2013> <00:00:40>    2  ErrMat   0.00011906  MaxEl -0.00003711
 <Jan01-2013> <00:00:41>    3  ErrMat   0.00008248  MaxEl -0.00002564
 <Jan01-2013> <00:00:41>    4  ErrMat   0.00000985  MaxEl  0.00000227
 <Jan01-2013> <00:00:42>    5  ErrMat   0.00000443  MaxEl  0.00000102
 <Jan01-2013> <00:00:42>    6  ErrMat   0.00000011  MaxEl -0.00000002
 <Jan01-2013> <00:00:42>  SCF converged
 <Jan01-2013> <00:00:43>    7  ErrMat   0.00000002  MaxEl  0.00000000
 <Jan01-2013> <00:00:43>  >>>> TOTEN
 <Jan01-2013> <00:00:43>  >>>> POPAN
 <Jan01-2013> <00:00:43>  >>>> DEBYE
 <Jan01-2013> <00:00:43>  >>>> AMETS
 <Jan01-2013> <00:00:43>  >>>> ENGRAD
  Coordinates in Frequency Displacement 11
    Atom         X           Y           Z   (Angstrom)
    1.H        -3.092845   -0.925663    0.858036
    2.O        -4.082973   -0.689737    0.995578
    3.H        -4.802080   -1.007120    0.221265
    4.H        -4.364781   -0.936324    1.904891
 <Jan01-2013> <00:00:44>  >>>> CORORT
 <Jan01-2013> <00:00:44>  >>>> FITINT
 <Jan01-2013> <00:00:44>  >>>> CLSMAT
 <Jan01-2013> <00:00:44>  >>>> ORTHON
 <Jan01-2013> <00:00:44>  >>>> GENPT
 <Jan01-2013> <00:00:44>  Block Length= 128
 <Jan01-2013> <00:00:44>  >>>> PTBAS
 <Jan01-2013> <00:00:45>  >>>> CYCLE
 <Jan01-2013> <00:00:45>    1
 <Jan01-2013> <00:00:45>    2  ErrMat   0.02977521  MaxEl  0.00763566
 <Jan01-2013> <00:00:45>    3  ErrMat   0.01983815  MaxEl  0.00503378
 <Jan01-2013> <00:00:45>    4  ErrMat   0.00377411  MaxEl -0.00092145
 <Jan01-2013> <00:00:45>    5  ErrMat   0.00065060  MaxEl  0.00018414
 <Jan01-2013> <00:00:46>    6  ErrMat   0.00004567  MaxEl -0.00001161
 <Jan01-2013> <00:00:46>    7  ErrMat   0.00001432  MaxEl  0.00000396
 <Jan01-2013> <00:00:46>    8  ErrMat   0.00000134  MaxEl  0.00000034
 <Jan01-2013> <00:00:46>  SCF converged
 <Jan01-2013> <00:00:46>    9  ErrMat   0.00000006  MaxEl -0.00000002
 <Jan01-2013> <00:00:46>  >>>> TOTEN
 <Jan01-2013> <00:00:47>  >>>> POPAN
 <Jan01-2013> <00:00:47>  >>>> DEBYE
 <Jan01-2013> <00:00:47>  >>>> AMETS
 <Jan01-2013> <00:00:47>  >>>> ENGRAD
  Coordinates in Frequency Displacement 12
    Atom         X           Y           Z   (Angstrom)
    1.H        -3.092845   -0.925663    0.858036
    2.O        -4.082973   -0.689737    1.015578
    3.H        -4.802080   -1.007120    0.221265
    4.H        -4.364781   -0.936324    1.904891
 <Jan01-2013> <00:00:48>  >>>> CORORT
 <Jan01-2013> <00:00:48>  >>>> FITINT
 <Jan01-2013> <00:00:48>  >>>> CLSMAT
 <Jan01-2013> <00:00:48>  >>>> ORTHON
 <Jan01-2013> <00:00:48>  >>>> GENPT
 <Jan01-2013> <00:00:48>  Block Length= 128
 <Jan01-2013> <00:00:48>  >>>> PTBAS
 <Jan01-2013> <00:00:48>  >>>> CYCLE
 <Jan01-2013> <00:00:48>    1
 <Jan01-2013> <00:00:48>    2  ErrMat   0.00078140  MaxEl -0.00016704
 <Jan01-2013> <00:00:49>    3  ErrMat   0.00035614  MaxEl -0.00007688
 <Jan01-2013> <00:00:49>    4  ErrMat   0.00007018  MaxEl -0.00001651
 <Jan01-2013> <00:00:49>    5  ErrMat   0.00000713  MaxEl -0.00000140
 <Jan01-2013> <00:00:49>    6  ErrMat   0.00000081  MaxEl  0.00000022
 <Jan01-2013> <00:00:49>  SCF converged
 <Jan01-2013> <00:00:49>    7  ErrMat   0.00000011  MaxEl -0.00000002
 <Jan01-2013> <00:00:49>  >>>> TOTEN
 <Jan01-2013> <00:00:50>  >>>> POPAN
 <Jan01-2013> <00:00:50>  >>>> DEBYE
 <Jan01-2013> <00:00:50>  >>>> AMETS
 <Jan01-2013> <00:00:50>  >>>> ENGRAD
  Coordinates in Frequency Displacement 13
    Atom         X           Y           Z   (Angstrom)
    1.H        -3.092845   -0.925663    0.858036
    2.O        -4.082973   -0.689737    1.005578
    3.H        -4.812080   -1.007120    0.221265
    4.H        -4.364781   -0.936324    1.904891
 <Jan01-2013> <00:00:51>  >>>> CORORT
 <Jan01-2013> <00:00:51>  >>>> FITINT
 <Jan01-2013> <00:00:51>  >>>> CLSMAT
 <Jan01-2013> <00:00:51>  >>>> ORTHON
 <Jan01-2013> <00:00:51>  >>>> GENPT
 <Jan01-2013> <00:00:51>  Block Length= 128
 <Jan01-2013> <00:00:51>  >>>> PTBAS
 <Jan01-2013> <00:00:52>  >>>> CYCLE
 <Jan01-2013> <00:00:52>    1
 <Jan01-2013> <00:00:52>    2  ErrMat   0.01357482  MaxEl  0.00342202
 <Jan01-2013> <00:00:52>    3  ErrMat   0.00723192  MaxEl  0.00182200
 <Jan01-2013> <00:00:52>    4  ErrMat   0.00302923  MaxEl -0.00083320
 <Jan01-2013> <00:00:52>    5  ErrMat   0.00021108  MaxEl -0.00004124
 <Jan01-2013> <00:00:52>    6  ErrMat   0.00001876  MaxEl -0.00000546
 <Jan01-2013> <00:00:53>    7  ErrMat   0.00000298  MaxEl -0.00000072
 <Jan01-2013> <00:00:53>  SCF converged
 <Jan01-2013> <00:00:53>    8  ErrMat   0.00000065  MaxEl  0.00000014
 <Jan01-2013> <00:00:53>  >>>> TOTEN
 <Jan01-2013> <00:00:53>  >>>> POPAN
 <Jan01-2013> <00:00:53>  >>>> DEBYE
 <Jan01-2013> <00:00:53>  >>>> AMETS
 <Jan01-2013> <00:00:53>  >>>> ENGRAD
  Coordinates in Frequency Displacement 14
    Atom         X           Y           Z   (Angstrom)
    1.H        -3.092845   -0.925663    0.858036
    2.O        -4.082973   -0.689737    1.005578
    3.H        -4.792080   -1.007120    0.221265
    4.H        -4.364781   -0.936324    1.904891
 <Jan01-2013> <00:00:55>  >>>> CORORT
 <Jan01-2013> <00:00:55>  >>>> FITINT
 <Jan01-2013> <00:00:55>  >>>> CLSMAT
 <Jan01-2013> <00:00:55>  >>>> ORTHON
 <Jan01-2013> <00:00:55>  >>>> GENPT
 <Jan01-2013> <00:00:55>  Block Length= 128
 <Jan01-2013> <00:00:55>  >>>> PTBAS
 <Jan01-2013> <00:00:55>  >>>> CYCLE
 <Jan01-2013> <00:00:55>    1
 <Jan01-2013> <00:00:55>    2  ErrMat   0.00044666  MaxEl -0.00010750
 <Jan01-2013> <00:00:56>    3  ErrMat   0.00023273  MaxEl -0.00005599
 <Jan01-2013> <00:00:56>    4  ErrMat   0.00009010  MaxEl  0.00002451
 <Jan01-2013> <00:00:56>    5  ErrMat   0.00000563  MaxEl  0.00000108
 <Jan01-2013> <00:00:56>    6  ErrMat   0.00000057  MaxEl  0.00000015
 <Jan01-2013> <00:00:56>  SCF converged
 <Jan01-2013> <00:00:56>    7  ErrMat   0.00000009  MaxEl  0.00000002
 <Jan01-2013> <00:00:56>  >>>> TOTEN
 <Jan01-2013> <00:00:57>  >>>> POPAN
 <Jan01-2013> <00:00:57>  >>>> DEBYE
 <Jan01-2013> <00:00:57>  >>>> AMETS
 <Jan01-2013> <00:00:57>  >>>> ENGRAD
  Coordinates in Frequency Displacement 15
    Atom         X           Y           Z   (Angstrom)
    1.H        -3.092845   -0.925663    0.858036
    2.O        -4.082973   -0.689737    1.005578
    3.H        -4.802080   -1.017120    0.221265
    4.H        -4.364781   -0.936324    1.904891
 <Jan01-2013> <00:00:58>  >>>> CORORT
 <Jan01-2013> <00:00:58>  >>>> FITINT
 <Jan01-2013> <00:00:58>  >>>> CLSMAT
 <Jan01-2013> <00:00:58>  >>>> ORTHON
 <Jan01-2013> <00:00:58>  >>>> GENPT
 <Jan01-2013> <00:00:58>  Block Length= 128
 <Jan01-2013> <00:00:58>  >>>> PTBAS
 <Jan01-2013> <00:00:59>  >>>> CYCLE
 <Jan01-2013> <00:00:59>    1
 <Jan01-2013> <00:00:59>    2  ErrMat   0.01019342  MaxEl  0.00243192
 <Jan01-2013> <00:00:59>    3  ErrMat   0.00622157  MaxEl  0.00164417
 <Jan01-2013> <00:00:59>    4  ErrMat   0.00350073  MaxEl  0.00074355
 <Jan01-2013> <00:00:59>    5  ErrMat   0.00017260  MaxEl  0.00003609
 <Jan01-2013> <00:01:00>    6  ErrMat   0.00001103  MaxEl  0.00000291
 <Jan01-2013> <00:01:00>    7  ErrMat   0.00000241  MaxEl -0.00000049
 <Jan01-2013> <00:01:00>  SCF converged
 <Jan01-2013> <00:01:00>    8  ErrMat   0.00000057  MaxEl -0.00000015
 <Jan01-2013> <00:01:00>  >>>> TOTEN
 <Jan01-2013> <00:01:01>  >>>> POPAN
 <Jan01-2013> <00:01:01>  >>>> DEBYE
 <Jan01-2013> <00:01:01>  >>>> AMETS
 <Jan01-2013> <00:01:01>  >>>> ENGRAD
  Coordinates in Frequency Displacement 16
    Atom         X           Y           Z   (Angstrom)
    1.H        -3.092845   -0.925663    0.858036
    2.O        -4.082973   -0.689737    1.005578
    3.H        -4.802080   -0.997120    0.221265
    4.H        -4.364781   -0.936324    1.904891
 <Jan01-2013> <00:01:02>  >>>> CORORT
 <Jan01-2013> <00:01:02>  >>>> FITINT
 <Jan01-2013> <00:01:02>  >>>> CLSMAT
 <Jan01-2013> <00:01:02>  >>>> ORTHON
 <Jan01-2013> <00:01:02>  >>>> GENPT
 <Jan01-2013> <00:01:02>  Block Length= 128
 <Jan01-2013> <00:01:02>  >>>> PTBAS
 <Jan01-2013> <00:01:02>  >>>> CYCLE
 <Jan01-2013> <00:01:02>    1
 <Jan01-2013> <00:01:02>    2  ErrMat   0.00012617  MaxEl -0.00003351
 <Jan01-2013> <00:01:02>    3  ErrMat   0.00008018  MaxEl -0.00002277
 <Jan01-2013> <00:01:03>    4  ErrMat   0.00004836  MaxEl -0.00001068
 <Jan01-2013> <00:01:03>    5  ErrMat   0.00000196  MaxEl  0.00000042
 <Jan01-2013> <00:01:03>  SCF converged
 <Jan01-2013> <00:01:03>    6  ErrMat   0.00000019  MaxEl -0.00000004
 <Jan01-2013> <00:01:03>  >>>> TOTEN
 <Jan01-2013> <00:01:03>  >>>> POPAN
 <Jan01-2013> <00:01:03>  >>>> DEBYE
 <Jan01-2013> <00:01:03>  >>>> AMETS
 <Jan01-2013> <00:01:03>  >>>> ENGRAD
  Coordinates in Frequency Displacement 17
    Atom         X           Y           Z   (Angstrom)
    1.H        -3.092845   -0.925663    0.858036
    2.O        -4.082973   -0.689737    1.005578
    3.H        -4.802080   -1.007120    0.211265
    4.H        -4.364781   -0.936324    1.904891
 <Jan01-2013> <00:01:05>  >>>> CORORT
 <Jan01-2013> <00:01:05>  >>>> FITINT
 <Jan01-2013> <00:01:05>  >>>> CLSMAT
 <Jan01-2013> <00:01:05>  >>>> ORTHON
 <Jan01-2013> <00:01:05>  >>>> GENPT
 <Jan01-2013> <00:01:05>  Block Length= 128
 <Jan01-2013> <00:01:05>  >>>> PTBAS
 <Jan01-2013> <00:01:05>  >>>> CYCLE
 <Jan01-2013> <00:01:05>    1
 <Jan01-2013> <00:01:06>    2  ErrMat   0.01413829  MaxEl  0.00323262
 <Jan01-2013> <00:01:06>    3  ErrMat   0.00737589  MaxEl  0.00172669
 <Jan01-2013> <00:01:06>    4  ErrMat   0.00286244  MaxEl -0.00070658
 <Jan01-2013> <00:01:06>    5  ErrMat   0.00021276  MaxEl -0.00004245
 <Jan01-2013> <00:01:06>    6  ErrMat   0.00001861  MaxEl -0.00000524
 <Jan01-2013> <00:01:06>    7  ErrMat   0.00000317  MaxEl -0.00000083
 <Jan01-2013> <00:01:06>  SCF converged
 <Jan01-2013> <00:01:07>    8  ErrMat   0.00000071  MaxEl  0.00000016
 <Jan01-2013> <00:01:07>  >>>> TOTEN
 <Jan01-2013> <00:01:07>  >>>> POPAN
 <Jan01-2013> <00:01:07>  >>>> DEBYE
 <Jan01-2013> <00:01:07>  >>>> AMETS
 <Jan01-2013> <00:01:07>  >>>> ENGRAD
  Coordinates in Frequency Displacement 18
    Atom         X           Y           Z   (Angstrom)
    1.H        -3.092845   -0.925663    0.858036
    2.O        -4.082973   -0.689737    1.005578
    3.H        -4.802080   -1.007120    0.231265
    4.H        -4.364781   -0.936324    1.904891
 <Jan01-2013> <00:01:08>  >>>> CORORT
 <Jan01-2013> <00:01:08>  >>>> FITINT
 <Jan01-2013> <00:01:08>  >>>> CLSMAT
 <Jan01-2013> <00:01:08>  >>>> ORTHON
 <Jan01-2013> <00:01:08>  >>>> GENPT
 <Jan01-2013> <00:01:09>  Block Length= 128
 <Jan01-2013> <00:01:09>  >>>> PTBAS
 <Jan01-2013> <00:01:09>  >>>> CYCLE
 <Jan01-2013> <00:01:09>    1
 <Jan01-2013> <00:01:09>    2  ErrMat   0.00050007  MaxEl -0.00011004
 <Jan01-2013> <00:01:09>    3  ErrMat   0.00025417  MaxEl -0.00005763
 <Jan01-2013> <00:01:09>    4  ErrMat   0.00008945  MaxEl  0.00002207
 <Jan01-2013> <00:01:10>    5  ErrMat   0.00000598  MaxEl  0.00000119
 <Jan01-2013> <00:01:10>    6  ErrMat   0.00000055  MaxEl  0.00000015
 <Jan01-2013> <00:01:10>  SCF converged
 <Jan01-2013> <00:01:10>    7  ErrMat   0.00000009  MaxEl  0.00000002
 <Jan01-2013> <00:01:10>  >>>> TOTEN
 <Jan01-2013> <00:01:10>  >>>> POPAN
 <Jan01-2013> <00:01:10>  >>>> DEBYE
 <Jan01-2013> <00:01:10>  >>>> AMETS
 <Jan01-2013> <00:01:10>  >>>> ENGRAD
  Coordinates in Frequency Displacement 19
    Atom         X           Y           Z   (Angstrom)
    1.H        -3.092845   -0.925663    0.858036
    2.O        -4.082973   -0.689737    1.005578
    3.H        -4.802080   -1.007120    0.221265
    4.H        -4.374781   -0.936324    1.904891
 <Jan01-2013> <00:01:12>  >>>> CORORT
 <Jan01-2013> <00:01:12>  >>>> FITINT
 <Jan01-2013> <00:01:12>  >>>> CLSMAT
 <Jan01-2013> <00:01:12>  >>>> ORTHON
 <Jan01-2013> <00:01:12>  >>>> GENPT
 <Jan01-2013> <00:01:12>  Block Length= 128
 <Jan01-2013> <00:01:12>  >>>> PTBAS
 <Jan01-2013> <00:01:12>  >>>> CYCLE
 <Jan01-2013> <00:01:12>    1
 <Jan01-2013> <00:01:12>    2  ErrMat   0.01308666  MaxEl -0.00323754
 <Jan01-2013> <00:01:13>    3  ErrMat   0.00831404  MaxEl -0.00214986
 <Jan01-2013> <00:01:13>    4  ErrMat   0.00480269  MaxEl -0.00123307
 <Jan01-2013> <00:01:13>    5  ErrMat   0.00016177  MaxEl  0.00003842
 <Jan01-2013> <00:01:13>    6  ErrMat   0.00001431  MaxEl -0.00000317
 <Jan01-2013> <00:01:13>    7  ErrMat   0.00000445  MaxEl -0.00000112
 <Jan01-2013> <00:01:13>    8  ErrMat   0.00000061  MaxEl -0.00000017
 <Jan01-2013> <00:01:13>  SCF converged
 <Jan01-2013> <00:01:14>    9  ErrMat   0.00000002  MaxEl -0.00000001
 <Jan01-2013> <00:01:14>  >>>> TOTEN
 <Jan01-2013> <00:01:14>  >>>> POPAN
 <Jan01-2013> <00:01:14>  >>>> DEBYE
 <Jan01-2013> <00:01:14>  >>>> AMETS
 <Jan01-2013> <00:01:14>  >>>> ENGRAD
  Coordinates in Frequency Displacement 20
    Atom         X           Y           Z   (Angstrom)
    1.H        -3.092845   -0.925663    0.858036
    2.O        -4.082973   -0.689737    1.005578
    3.H        -4.802080   -1.007120    0.221265
    4.H        -4.354781   -0.936324    1.904891
 <Jan01-2013> <00:01:15>  >>>> CORORT
 <Jan01-2013> <00:01:15>  >>>> FITINT
 <Jan01-2013> <00:01:15>  >>>> CLSMAT
 <Jan01-2013> <00:01:15>  >>>> ORTHON
 <Jan01-2013> <00:01:15>  >>>> GENPT
 <Jan01-2013> <00:01:15>  Block Length= 128
 <Jan01-2013> <00:01:15>  >>>> PTBAS
 <Jan01-2013> <00:01:15>  >>>> CYCLE
 <Jan01-2013> <00:01:16>    1
 <Jan01-2013> <00:01:16>    2  ErrMat   0.00006458  MaxEl  0.00001154
 <Jan01-2013> <00:01:16>    3  ErrMat   0.00004044  MaxEl  0.00000790
 <Jan01-2013> <00:01:16>    4  ErrMat   0.00002397  MaxEl -0.00000527
 <Jan01-2013> <00:01:16>    5  ErrMat   0.00000116  MaxEl -0.00000024
 <Jan01-2013> <00:01:16>  SCF converged
 <Jan01-2013> <00:01:16>    6  ErrMat   0.00000018  MaxEl  0.00000004
 <Jan01-2013> <00:01:16>  >>>> TOTEN
 <Jan01-2013> <00:01:17>  >>>> POPAN
 <Jan01-2013> <00:01:17>  >>>> DEBYE
 <Jan01-2013> <00:01:17>  >>>> AMETS
 <Jan01-2013> <00:01:17>  >>>> ENGRAD
  Coordinates in Frequency Displacement 21
    Atom         X           Y           Z   (Angstrom)
    1.H        -3.092845   -0.925663    0.858036
    2.O        -4.082973   -0.689737    1.005578
    3.H        -4.802080   -1.007120    0.221265
    4.H        -4.364781   -0.946324    1.904891
 <Jan01-2013> <00:01:18>  >>>> CORORT
 <Jan01-2013> <00:01:18>  >>>> FITINT
 <Jan01-2013> <00:01:18>  >>>> CLSMAT
 <Jan01-2013> <00:01:18>  >>>> ORTHON
 <Jan01-2013> <00:01:18>  >>>> GENPT
 <Jan01-2013> <00:01:18>  Block Length= 128
 <Jan01-2013> <00:01:18>  >>>> PTBAS
 <Jan01-2013> <00:01:19>  >>>> CYCLE
 <Jan01-2013> <00:01:19>    1
 <Jan01-2013> <00:01:19>    2  ErrMat   0.01305368  MaxEl  0.00336281
 <Jan01-2013> <00:01:19>    3  ErrMat   0.00824165  MaxEl  0.00228132
 <Jan01-2013> <00:01:19>    4  ErrMat   0.00495808  MaxEl  0.00108725
 <Jan01-2013> <00:01:19>    5  ErrMat   0.00020405  MaxEl  0.00004534
 <Jan01-2013> <00:01:19>    6  ErrMat   0.00000923  MaxEl  0.00000220
 <Jan01-2013> <00:01:20>    7  ErrMat   0.00000164  MaxEl  0.00000046
 <Jan01-2013> <00:01:20>  SCF converged
 <Jan01-2013> <00:01:20>    8  ErrMat   0.00000031  MaxEl -0.00000008
 <Jan01-2013> <00:01:20>  >>>> TOTEN
 <Jan01-2013> <00:01:20>  >>>> POPAN
 <Jan01-2013> <00:01:20>  >>>> DEBYE
 <Jan01-2013> <00:01:20>  >>>> AMETS
 <Jan01-2013> <00:01:20>  >>>> ENGRAD
  Coordinates in Frequency Displacement 22
    Atom         X           Y           Z   (Angstrom)
    1.H        -3.092845   -0.925663    0.858036
    2.O        -4.082973   -0.689737    1.005578
    3.H        -4.802080   -1.007120    0.221265
    4.H        -4.364781   -0.926324    1.904891
 <Jan01-2013> <00:01:22>  >>>> CORORT
 <Jan01-2013> <00:01:22>  >>>> FITINT
 <Jan01-2013> <00:01:22>  >>>> CLSMAT
 <Jan01-2013> <00:01:22>  >>>> ORTHON
 <Jan01-2013> <00:01:22>  >>>> GENPT
 <Jan01-2013> <00:01:22>  Block Length= 128
 <Jan01-2013> <00:01:22>  >>>> PTBAS
 <Jan01-2013> <00:01:22>  >>>> CYCLE
 <Jan01-2013> <00:01:22>    1
 <Jan01-2013> <00:01:22>    2  ErrMat   0.00003307  MaxEl -0.00000706
 <Jan01-2013> <00:01:23>    3  ErrMat   0.00002326  MaxEl -0.00000494
 <Jan01-2013> <00:01:23>    4  ErrMat   0.00000478  MaxEl  0.00000111
 <Jan01-2013> <00:01:23>    5  ErrMat   0.00000234  MaxEl  0.00000056
 <Jan01-2013> <00:01:23>  SCF converged
 <Jan01-2013> <00:01:23>    6  ErrMat   0.00000013  MaxEl -0.00000003
 <Jan01-2013> <00:01:23>  >>>> TOTEN
 <Jan01-2013> <00:01:24>  >>>> POPAN
 <Jan01-2013> <00:01:24>  >>>> DEBYE
 <Jan01-2013> <00:01:24>  >>>> AMETS
 <Jan01-2013> <00:01:24>  >>>> ENGRAD
  Coordinates in Frequency Displacement 23
    Atom         X           Y           Z   (Angstrom)
    1.H        -3.092845   -0.925663    0.858036
    2.O        -4.082973   -0.689737    1.005578
    3.H        -4.802080   -1.007120    0.221265
    4.H        -4.364781   -0.936324    1.894891
 <Jan01-2013> <00:01:25>  >>>> CORORT
 <Jan01-2013> <00:01:25>  >>>> FITINT
 <Jan01-2013> <00:01:25>  >>>> CLSMAT
 <Jan01-2013> <00:01:25>  >>>> ORTHON
 <Jan01-2013> <00:01:25>  >>>> GENPT
 <Jan01-2013> <00:01:25>  Block Length= 128
 <Jan01-2013> <00:01:25>  >>>> PTBAS
 <Jan01-2013> <00:01:25>  >>>> CYCLE
 <Jan01-2013> <00:01:25>    1
 <Jan01-2013> <00:01:25>    2  ErrMat   0.01971513  MaxEl  0.00538406
 <Jan01-2013> <00:01:25>    3  ErrMat   0.01040435  MaxEl  0.00283173
 <Jan01-2013> <00:01:26>    4  ErrMat   0.00408849  MaxEl  0.00083983
 <Jan01-2013> <00:01:26>    5  ErrMat   0.00028769  MaxEl  0.00005946
 <Jan01-2013> <00:01:26>    6  ErrMat   0.00002591  MaxEl -0.00000783
 <Jan01-2013> <00:01:26>    7  ErrMat   0.00000566  MaxEl -0.00000138
 <Jan01-2013> <00:01:26>    8  ErrMat   0.00000102  MaxEl -0.00000024
 <Jan01-2013> <00:01:26>  SCF converged
 <Jan01-2013> <00:01:27>    9  ErrMat   0.00000006  MaxEl  0.00000001
 <Jan01-2013> <00:01:27>  >>>> TOTEN
 <Jan01-2013> <00:01:28>  >>>> POPAN
 <Jan01-2013> <00:01:28>  >>>> DEBYE
 <Jan01-2013> <00:01:28>  >>>> AMETS
 <Jan01-2013> <00:01:28>  >>>> ENGRAD
  Coordinates in Frequency Displacement 24
    Atom         X           Y           Z   (Angstrom)
    1.H        -3.092845   -0.925663    0.858036
    2.O        -4.082973   -0.689737    1.005578
    3.H        -4.802080   -1.007120    0.221265
    4.H        -4.364781   -0.936324    1.914891
 <Jan01-2013> <00:01:30>  >>>> CORORT
 <Jan01-2013> <00:01:30>  >>>> FITINT
 <Jan01-2013> <00:01:30>  >>>> CLSMAT
 <Jan01-2013> <00:01:30>  >>>> ORTHON
 <Jan01-2013> <00:01:30>  >>>> GENPT
 <Jan01-2013> <00:01:30>  Block Length= 128
 <Jan01-2013> <00:01:30>  >>>> PTBAS
 <Jan01-2013> <00:01:31>  >>>> CYCLE
 <Jan01-2013> <00:01:31>    1
 <Jan01-2013> <00:01:31>    2  ErrMat   0.00033685  MaxEl  0.00008296
 <Jan01-2013> <00:01:31>    3  ErrMat   0.00015266  MaxEl  0.00003937
 <Jan01-2013> <00:01:31>    4  ErrMat   0.00002216  MaxEl -0.00000398
 <Jan01-2013> <00:01:31>    5  ErrMat   0.00000343  MaxEl -0.00000085
 <Jan01-2013> <00:01:31>  SCF converged
 <Jan01-2013> <00:01:32>    6  ErrMat   0.00000040  MaxEl -0.00000011
 <Jan01-2013> <00:01:32>  >>>> TOTEN
 <Jan01-2013> <00:01:32>  >>>> POPAN
 <Jan01-2013> <00:01:32>  >>>> DEBYE
 <Jan01-2013> <00:01:32>  >>>> AMETS
 <Jan01-2013> <00:01:32>  >>>> ENGRAD
 <Jan01-2013> <00:01:33>  Force Constants computed
 <Jan01-2013> <00:01:33>  There were warnings during force constant computation. Please check the output file.
 <Jan01-2013> <00:01:33>  NORMAL TERMINATION
 <Jan01-2013> <00:01:33>  END
